
                                 *****************
                                 * O   R   C   A *
                                 *****************

                                            #,                                       
                                            ###                                      
                                            ####                                     
                                            #####                                    
                                            ######                                   
                                           ########,                                 
                                     ,,################,,,,,                         
                               ,,#################################,,                 
                          ,,##########################################,,             
                       ,#########################################, ''#####,          
                    ,#############################################,,   '####,        
                  ,##################################################,,,,####,       
                ,###########''''           ''''###############################       
              ,#####''   ,,,,##########,,,,          '''####'''          '####       
            ,##' ,,,,###########################,,,                        '##       
           ' ,,###''''                  '''############,,,                           
         ,,##''                                '''############,,,,        ,,,,,,###''
      ,#''                                            '''#######################'''  
     '                                                          ''''####''''         
             ,#######,   #######,   ,#######,      ##                                
            ,#'     '#,  ##    ##  ,#'     '#,    #''#        ######   ,####,        
            ##       ##  ##   ,#'  ##            #'  '#       #        #'  '#        
            ##       ##  #######   ##           ,######,      #####,   #    #        
            '#,     ,#'  ##    ##  '#,     ,#' ,#      #,         ##   #,  ,#        
             '#######'   ##     ##  '#######'  #'      '#     #####' # '####'        



                  #######################################################
                  #                        -***-                        #
                  #          Department of theory and spectroscopy      #
                  #    Directorship and core code : Frank Neese         #
                  #        Max Planck Institute fuer Kohlenforschung    #
                  #                Kaiser Wilhelm Platz 1               #
                  #                 D-45470 Muelheim/Ruhr               #
                  #                      Germany                        #
                  #                                                     #
                  #                  All rights reserved                #
                  #                        -***-                        #
                  #######################################################


                         Program Version 5.0.4 -  RELEASE  -


 With contributions from (in alphabetic order):
   Daniel Aravena         : Magnetic Suceptibility
   Michael Atanasov       : Ab Initio Ligand Field Theory (pilot matlab implementation)
   Alexander A. Auer      : GIAO ZORA, VPT2 properties, NMR spectrum
   Ute Becker             : Parallelization
   Giovanni Bistoni       : ED, misc. LED, open-shell LED, HFLD
   Martin Brehm           : Molecular dynamics
   Dmytro Bykov           : SCF Hessian
   Vijay G. Chilkuri      : MRCI spin determinant printing, contributions to CSF-ICE
   Dipayan Datta          : RHF DLPNO-CCSD density
   Achintya Kumar Dutta   : EOM-CC, STEOM-CC
   Dmitry Ganyushin       : Spin-Orbit,Spin-Spin,Magnetic field MRCI
   Miquel Garcia          : C-PCM and meta-GGA Hessian, CC/C-PCM, Gaussian charge scheme
   Yang Guo               : DLPNO-NEVPT2, F12-NEVPT2, CIM, IAO-localization
   Andreas Hansen         : Spin unrestricted coupled pair/coupled cluster methods
   Benjamin Helmich-Paris : MC-RPA, TRAH-SCF, COSX integrals
   Lee Huntington         : MR-EOM, pCC
   Robert Izsak           : Overlap fitted RIJCOSX, COSX-SCS-MP3, EOM
   Marcus Kettner         : VPT2
   Christian Kollmar      : KDIIS, OOCD, Brueckner-CCSD(T), CCSD density, CASPT2, CASPT2-K
   Simone Kossmann        : Meta GGA functionals, TD-DFT gradient, OOMP2, MP2 Hessian
   Martin Krupicka        : Initial AUTO-CI
   Lucas Lang             : DCDCAS
   Marvin Lechner         : AUTO-CI (C++ implementation), FIC-MRCC
   Dagmar Lenk            : GEPOL surface, SMD
   Dimitrios Liakos       : Extrapolation schemes; Compound Job, initial MDCI parallelization
   Dimitrios Manganas     : Further ROCIS development; embedding schemes
   Dimitrios Pantazis     : SARC Basis sets
   Anastasios Papadopoulos: AUTO-CI, single reference methods and gradients
   Taras Petrenko         : DFT Hessian,TD-DFT gradient, ASA, ECA, R-Raman, ABS, FL, XAS/XES, NRVS
   Peter Pinski           : DLPNO-MP2, DLPNO-MP2 Gradient
   Christoph Reimann      : Effective Core Potentials
   Marius Retegan         : Local ZFS, SOC
   Christoph Riplinger    : Optimizer, TS searches, QM/MM, DLPNO-CCSD(T), (RO)-DLPNO pert. Triples
   Tobias Risthaus        : Range-separated hybrids, TD-DFT gradient, RPA, STAB
   Michael Roemelt        : Original ROCIS implementation
   Masaaki Saitow         : Open-shell DLPNO-CCSD energy and density
   Barbara Sandhoefer     : DKH picture change effects
   Avijit Sen             : IP-ROCIS
   Kantharuban Sivalingam : CASSCF convergence, NEVPT2, FIC-MRCI
   Bernardo de Souza      : ESD, SOC TD-DFT
   Georgi Stoychev        : AutoAux, RI-MP2 NMR, DLPNO-MP2 response
   Willem Van den Heuvel  : Paramagnetic NMR
   Boris Wezisla          : Elementary symmetry handling
   Frank Wennmohs         : Technical directorship


 We gratefully acknowledge several colleagues who have allowed us to
 interface, adapt or use parts of their codes:
   Stefan Grimme, W. Hujo, H. Kruse, P. Pracht,  : VdW corrections, initial TS optimization,
                  C. Bannwarth, S. Ehlert          DFT functionals, gCP, sTDA/sTD-DF
   Ed Valeev, F. Pavosevic, A. Kumar             : LibInt (2-el integral package), F12 methods
   Garnet Chan, S. Sharma, J. Yang, R. Olivares  : DMRG
   Ulf Ekstrom                                   : XCFun DFT Library
   Mihaly Kallay                                 : mrcc  (arbitrary order and MRCC methods)
   Jiri Pittner, Ondrej Demel                    : Mk-CCSD
   Frank Weinhold                                : gennbo (NPA and NBO analysis)
   Christopher J. Cramer and Donald G. Truhlar   : smd solvation model
   Lars Goerigk                                  : TD-DFT with DH, B97 family of functionals
   V. Asgeirsson, H. Jonsson                     : NEB implementation
   FAccTs GmbH                                   : IRC, NEB, NEB-TS, DLPNO-Multilevel, CI-OPT
                                                   MM, QMMM, 2- and 3-layer-ONIOM, Crystal-QMMM,
                                                   LR-CPCM, SF, NACMEs, symmetry and pop. for TD-DFT,
                                                   nearIR, NL-DFT gradient (VV10), updates on ESD,
                                                   ML-optimized integration grids
   S Lehtola, MJT Oliveira, MAL Marques          : LibXC Library
   Liviu Ungur et al                             : ANISO software


 Your calculation uses the libint2 library for the computation of 2-el integrals
 For citations please refer to: http://libint.valeyev.net

 Your ORCA version has been built with support for libXC version: 5.1.0
 For citations please refer to: https://tddft.org/programs/libxc/

 This ORCA versions uses:
   CBLAS   interface :  Fast vector & matrix operations
   LAPACKE interface :  Fast linear algebra routines
   SCALAPACK package :  Parallel linear algebra routines
   Shared memory     :  Shared parallel matrices
   BLAS/LAPACK       :  OpenBLAS 0.3.15  USE64BITINT DYNAMIC_ARCH NO_AFFINITY Haswell SINGLE_THREADED
        Core in use  :  Haswell
   Copyright (c) 2011-2014, The OpenBLAS Project


================================================================================

----- Orbital basis set information -----
Your calculation utilizes the basis: 6-311G(d,p)
   H, Li - Ne  : R. Krishnan, J. S. Binkley, R. Seeger and J. A. Pople, J. Chem. Phys. 72, 650 (1980).
   Na - Ar     : A. D. McLean and G. S. Chandler J. Chem. Phys. 72, 5639, (1980).
   K  - Ca     : J.-P. Blaudeau, M. P. McGrath, L. A. Curtiss and L. Radom, J. Chem. Phys. 107, 5016 (1997).
   Ga - Kr     : L. A. Curtiss, M. P. McGrath, J.-P. Blandeau, N. E. Davis, R. C. Binning and L. Radom, J. Chem. Phys. 103, 6104 (1995).
   Pol./Diff.
   H, Li - Cl  : T. Clark, J. Chandrasekhar and P. v. R. Schleyer, J. Comp. Chem. 4, 294 (1983).
   H - Ne      : M. J. Frisch, J. A. Pople and J. S. Binkley, J. Chem. Phys. 80, 3265 (1984).

----- AuxJ basis set information -----
Your calculation utilizes the auxiliary basis: def2/J
   F. Weigend, Phys. Chem. Chem. Phys. 8, 1057 (2006).

================================================================================
                                        WARNINGS
                       Please study these warnings very carefully!
================================================================================


WARNING: Analytical and numerical frequencies both set to true
  ===> : Disabling Anfreq

WARNING: The environment variable RSH_COMMAND is not set!
  ===> : All Displacements for the Numerical Hessian or Gradient calculation
         will be started on localhost

WARNING: Geometry Optimization
  ===> : Switching off AutoStart
         For restart on a previous wavefunction, please use MOREAD

INFO   : the flag for use of the SHARK integral package has been found!

================================================================================
                                       INPUT FILE
================================================================================
NAME = ch3oh.inp
|  1> ! B3LYP 6-311G(d,p) OPT FREQ NUMFREQ PAL4
|  2> * xyz 0 1
|  3> C                  2.48145767    0.37825398    0.03488332
|  4> H                  2.85516178   -0.62138521    0.11212799
|  5> H                  2.74770046    0.92746804    0.91373410
|  6> H                  1.41608925    0.35429055   -0.06163548
|  7> O                  3.05001167    1.01224990   -1.11389669
|  8> H                  2.81113964    0.51949710   -1.90239833
|  9> *
| 10> 
| 11>                          ****END OF INPUT****
================================================================================

                       *****************************
                       * Geometry Optimization Run *
                       *****************************

Geometry optimization settings:
Update method            Update   .... BFGS
Choice of coordinates    CoordSys .... Z-matrix Internals
Initial Hessian          InHess   .... Almoef's Model

Convergence Tolerances:
Energy Change            TolE     ....  5.0000e-06 Eh
Max. Gradient            TolMAXG  ....  3.0000e-04 Eh/bohr
RMS Gradient             TolRMSG  ....  1.0000e-04 Eh/bohr
Max. Displacement        TolMAXD  ....  4.0000e-03 bohr
RMS Displacement         TolRMSD  ....  2.0000e-03 bohr
Strict Convergence                ....  False
------------------------------------------------------------------------------
                        ORCA OPTIMIZATION COORDINATE SETUP
------------------------------------------------------------------------------

The optimization will be done in new redundant internal coordinates
Making redundant internal coordinates   ...  (new redundants) done
Evaluating the initial hessian          ...  (Almloef) done
Evaluating the coordinates              ...  done
Calculating the B-matrix                .... done
Calculating the G-matrix                .... done
Diagonalizing the G-matrix              .... done
The first mode is                       ....    3
The number of degrees of freedom        ....   12

    -----------------------------------------------------------------
                    Redundant Internal Coordinates


    -----------------------------------------------------------------
         Definition                    Initial Value    Approx d2E/dq
    -----------------------------------------------------------------
      1. B(H   1,C   0)                  1.0700         0.387554   
      2. B(H   2,C   0)                  1.0700         0.387554   
      3. B(H   3,C   0)                  1.0700         0.387554   
      4. B(O   4,C   0)                  1.4300         0.483123   
      5. B(H   5,O   4)                  0.9600         0.519956   
      6. A(H   1,C   0,H   3)          109.4712         0.297665   
      7. A(H   1,C   0,H   2)          109.4712         0.297665   
      8. A(H   1,C   0,O   4)          109.4712         0.340517   
      9. A(H   2,C   0,O   4)          109.4712         0.340517   
     10. A(H   3,C   0,O   4)          109.4712         0.340517   
     11. A(H   2,C   0,H   3)          109.4712         0.297665   
     12. A(C   0,O   4,H   5)          109.4712         0.354684   
     13. D(H   5,O   4,C   0,H   2)    180.0000         0.018418   
     14. D(H   5,O   4,C   0,H   3)    -60.0000         0.018418   
     15. D(H   5,O   4,C   0,H   1)     60.0000         0.018418   
    -----------------------------------------------------------------

Number of atoms                         .... 6
Number of degrees of freedom            .... 15

         *************************************************************
         *                GEOMETRY OPTIMIZATION CYCLE   1            *
         *************************************************************
---------------------------------
CARTESIAN COORDINATES (ANGSTROEM)
---------------------------------
  C      2.481458    0.378254    0.034883
  H      2.855162   -0.621385    0.112128
  H      2.747700    0.927468    0.913734
  H      1.416089    0.354291   -0.061635
  O      3.050012    1.012250   -1.113897
  H      2.811140    0.519497   -1.902398

----------------------------
CARTESIAN COORDINATES (A.U.)
----------------------------
  NO LB      ZA    FRAG     MASS         X           Y           Z
   0 C     6.0000    0    12.011    4.689275    0.714796    0.065920
   1 H     1.0000    0     1.008    5.395474   -1.174248    0.211891
   2 H     1.0000    0     1.008    5.192401    1.752661    1.726707
   3 H     1.0000    0     1.008    2.676021    0.669512   -0.116474
   4 O     8.0000    0    15.999    5.763687    1.912875   -2.104960
   5 H     1.0000    0     1.008    5.312284    0.981707   -3.595012

--------------------------------
INTERNAL COORDINATES (ANGSTROEM)
--------------------------------
 C      0   0   0     0.000000000000     0.00000000     0.00000000
 H      1   0   0     1.070000005167     0.00000000     0.00000000
 H      1   2   0     1.070000000203   109.47122061     0.00000000
 H      1   2   3     1.069999997694   109.47122074   239.99999974
 O      1   2   3     1.429999996108   109.47122062   119.99999994
 H      5   1   2     0.960000002556   109.47122103    59.99999984

---------------------------
INTERNAL COORDINATES (A.U.)
---------------------------
 C      0   0   0     0.000000000000     0.00000000     0.00000000
 H      1   0   0     2.022006973061     0.00000000     0.00000000
 H      1   2   0     2.022006963680   109.47122061     0.00000000
 H      1   2   3     2.022006958937   109.47122074   239.99999974
 O      1   2   3     2.702308364152   109.47122062   119.99999994
 H      5   1   2     1.814137093394   109.47122103    59.99999984

---------------------
BASIS SET INFORMATION
---------------------
There are 3 groups of distinct atoms

 Group   1 Type C   : 11s5p1d contracted to 4s3p1d pattern {6311/311/1}
 Group   2 Type H   : 5s1p contracted to 3s1p pattern {311/1}
 Group   3 Type O   : 11s5p1d contracted to 4s3p1d pattern {6311/311/1}

Atom   0C    basis set group =>   1
Atom   1H    basis set group =>   2
Atom   2H    basis set group =>   2
Atom   3H    basis set group =>   2
Atom   4O    basis set group =>   3
Atom   5H    basis set group =>   2
---------------------------------
AUXILIARY/J BASIS SET INFORMATION
---------------------------------
There are 3 groups of distinct atoms

 Group   1 Type C   : 12s5p4d2f1g contracted to 6s4p3d1f1g pattern {711111/2111/211/2/1}
 Group   2 Type H   : 5s2p1d contracted to 3s1p1d pattern {311/2/1}
 Group   3 Type O   : 12s5p4d2f1g contracted to 6s4p3d1f1g pattern {711111/2111/211/2/1}

Atom   0C    basis set group =>   1
Atom   1H    basis set group =>   2
Atom   2H    basis set group =>   2
Atom   3H    basis set group =>   2
Atom   4O    basis set group =>   3
Atom   5H    basis set group =>   2


           ************************************************************
           *        Program running with 4 parallel MPI-processes     *
           *              working on a common directory               *
           ************************************************************
------------------------------------------------------------------------------
                           ORCA GTO INTEGRAL CALCULATION
                           -- RI-GTO INTEGRALS CHOSEN --
------------------------------------------------------------------------------
------------------------------------------------------------------------------
                   ___                                                        
                  /   \      - P O W E R E D   B Y -                         
                 /     \                                                     
                 |  |  |   _    _      __       _____    __    __             
                 |  |  |  | |  | |    /  \     |  _  \  |  |  /  |          
                  \  \/   | |  | |   /    \    | | | |  |  | /  /          
                 / \  \   | |__| |  /  /\  \   | |_| |  |  |/  /          
                |  |  |   |  __  | /  /__\  \  |    /   |      \           
                |  |  |   | |  | | |   __   |  |    \   |  |\   \          
                \     /   | |  | | |  |  |  |  | |\  \  |  | \   \       
                 \___/    |_|  |_| |__|  |__|  |_| \__\ |__|  \__/        
                                                                              
                      - O R C A' S   B I G   F R I E N D -                    
                                      &                                       
                       - I N T E G R A L  F E E D E R -                       
                                                                              
 v1 FN, 2020, v2 2021                                                         
------------------------------------------------------------------------------


Reading SHARK input file ch3oh.SHARKINP.tmp ... ok
----------------------
SHARK INTEGRAL PACKAGE
----------------------

Number of atoms                             ...      6
Number of basis functions                   ...     60
Number of shells                            ...     32
Maximum angular momentum                    ...      2
Integral batch strategy                     ... SHARK/LIBINT Hybrid
RI-J (if used) integral strategy            ... SPLIT-RIJ (Revised 2003 algorithm where possible)
Printlevel                                  ...      1
Contraction scheme used                     ... SEGMENTED contraction
Coulomb Range Separation                    ... NOT USED
Exchange Range Separation                   ... NOT USED
Finite Nucleus Model                        ... NOT USED
Auxiliary Coulomb fitting basis             ... AVAILABLE
   # of basis functions in Aux-J            ...    142
   # of shells in Aux-J                     ...     50
   Maximum angular momentum in Aux-J        ...      4
Auxiliary J/K fitting basis                 ... NOT available
Auxiliary Correlation fitting basis         ... NOT available
Auxiliary 'external' fitting basis          ... NOT available
Integral threshold                          ...     2.500000e-11
Primitive cut-off                           ...     2.500000e-12
Primitive pair pre-selection threshold      ...     2.500000e-12

Calculating pre-screening integrals         ... done (  0.0 sec) Dimension = 32
Organizing shell pair data                  ... done (  0.0 sec)
Shell pair information
Total number of shell pairs                 ...       528
Shell pairs after pre-screening             ...       528
Total number of primitive shell pairs       ...      1765
Primitive shell pairs kept                  ...      1551
          la=0 lb=0:    210 shell pairs
          la=1 lb=0:    200 shell pairs
          la=1 lb=1:     55 shell pairs
          la=2 lb=0:     40 shell pairs
          la=2 lb=1:     20 shell pairs
          la=2 lb=2:      3 shell pairs

Calculating one electron integrals          ... done (  0.0 sec)
Calculating RI/J V-Matrix + Cholesky decomp.... done (  0.0 sec)
Calculating Nuclear repulsion               ... done (  0.0 sec) ENN=     40.427354835955 Eh

SHARK setup successfully completed in   0.1 seconds

Maximum memory used throughout the entire GTOINT-calculation: 10.0 MB


           ************************************************************
           *        Program running with 4 parallel MPI-processes     *
           *              working on a common directory               *
           ************************************************************
-------------------------------------------------------------------------------
                                 ORCA SCF
-------------------------------------------------------------------------------

------------
SCF SETTINGS
------------
Hamiltonian:
 Density Functional     Method          .... DFT(GTOs)
 Exchange Functional    Exchange        .... B88
   X-Alpha parameter    XAlpha          ....  0.666667
   Becke's b parameter  XBeta           ....  0.004200
 Correlation Functional Correlation     .... LYP
 LDA part of GGA corr.  LDAOpt          .... VWN-5
 Gradients option       PostSCFGGA      .... off
 Hybrid DFT is turned on
   Fraction HF Exchange ScalHFX         ....  0.200000
   Scaling of DF-GGA-X  ScalDFX         ....  0.720000
   Scaling of DF-GGA-C  ScalDFC         ....  0.810000
   Scaling of DF-LDA-C  ScalLDAC        ....  1.000000
   Perturbative correction              ....  0.000000
   Density functional embedding theory  .... OFF
   NL short-range parameter             ....  4.800000
 RI-approximation to the Coulomb term is turned on
   Number of AuxJ basis functions       .... 142
   RIJ-COSX (HFX calculated with COS-X)).... on


General Settings:
 Integral files         IntName         .... ch3oh
 Hartree-Fock type      HFTyp           .... RHF
 Total Charge           Charge          ....    0
 Multiplicity           Mult            ....    1
 Number of Electrons    NEL             ....   18
 Basis Dimension        Dim             ....   60
 Nuclear Repulsion      ENuc            ....     40.4273548360 Eh

Convergence Acceleration:
 DIIS                   CNVDIIS         .... on
   Start iteration      DIISMaxIt       ....    12
   Startup error        DIISStart       ....  0.200000
   # of expansion vecs  DIISMaxEq       ....     5
   Bias factor          DIISBfac        ....   1.050
   Max. coefficient     DIISMaxC        ....  10.000
 Trust-Rad. Augm. Hess. CNVTRAH         .... auto
   Auto Start mean grad. ratio tolernc. ....  1.125000
   Auto Start start iteration           ....    20
   Auto Start num. interpolation iter.  ....    10
   Max. Number of Micro iterations      ....    16
   Max. Number of Macro iterations      .... Maxiter - #DIIS iter
   Number of Davidson start vectors     ....     2
   Converg. threshold I  (grad. norm)   ....   1.000e-05
   Converg. threshold II (energy diff.) ....   1.000e-08
   Grad. Scal. Fac. for Micro threshold ....   0.100
   Minimum threshold for Micro iter.    ....   0.010
   NR start threshold (gradient norm)   ....   0.001
   Initial trust radius                 ....   0.400
   Minimum AH scaling param. (alpha)    ....   1.000
   Maximum AH scaling param. (alpha)    .... 1000.000
   Orbital update algorithm             .... Taylor
   White noise on init. David. guess    .... on
   Maximum white noise                  ....   0.010
   Quad. conv. algorithm                .... NR
 SOSCF                  CNVSOSCF        .... on
   Start iteration      SOSCFMaxIt      ....   150
   Startup grad/error   SOSCFStart      ....  0.003300
 Level Shifting         CNVShift        .... on
   Level shift para.    LevelShift      ....    0.2500
   Turn off err/grad.   ShiftErr        ....    0.0010
 Zerner damping         CNVZerner       .... off
 Static damping         CNVDamp         .... on
   Fraction old density DampFac         ....    0.7000
   Max. Damping (<1)    DampMax         ....    0.9800
   Min. Damping (>=0)   DampMin         ....    0.0000
   Turn off err/grad.   DampErr         ....    0.1000
 Fernandez-Rico         CNVRico         .... off

SCF Procedure:
 Maximum # iterations   MaxIter         ....   125
 SCF integral mode      SCFMode         .... Direct
   Integral package                     .... SHARK and LIBINT hybrid scheme
 Reset frequency        DirectResetFreq ....    20
 Integral Threshold     Thresh          ....  2.500e-11 Eh
 Primitive CutOff       TCut            ....  2.500e-12 Eh

Convergence Tolerance:
 Convergence Check Mode ConvCheckMode   .... Total+1el-Energy
 Convergence forced     ConvForced      .... 0
 Energy Change          TolE            ....  1.000e-08 Eh
 1-El. energy change                    ....  1.000e-05 Eh
 Orbital Gradient       TolG            ....  1.000e-05
 Orbital Rotation angle TolX            ....  1.000e-05
 DIIS Error             TolErr          ....  5.000e-07


Diagonalization of the overlap matrix:
Smallest eigenvalue                        ... 8.588e-03
Time for diagonalization                   ...    0.001 sec
Threshold for overlap eigenvalues          ... 1.000e-08
Number of eigenvalues below threshold      ... 0
Time for construction of square roots      ...    0.001 sec
Total time needed                          ...    0.002 sec

Time for model grid setup =    0.014 sec

------------------------------
INITIAL GUESS: MODEL POTENTIAL
------------------------------
Loading Hartree-Fock densities                     ... done
Calculating cut-offs                               ... done
Initializing the effective Hamiltonian             ... done
Setting up the integral package (SHARK)            ... done
Starting the Coulomb interaction                   ... done (   0.0 sec)
Reading the grid                                   ... done
Mapping shells                                     ... done
Starting the XC term evaluation                    ... done (   0.0 sec)
  promolecular density results
     # of electrons  =     17.997308459
     EX              =    -14.519737822
     EC              =     -0.590470928
     EX+EC           =    -15.110208750
Transforming the Hamiltonian                       ... done (   0.0 sec)
Diagonalizing the Hamiltonian                      ... done (   0.0 sec)
Back transforming the eigenvectors                 ... done (   0.0 sec)
Now organizing SCF variables                       ... done
                      ------------------
                      INITIAL GUESS DONE (   0.0 sec)
                      ------------------
-------------------
DFT GRID GENERATION
-------------------

General Integration Accuracy     IntAcc      ... 4.388
Radial Grid Type                 RadialGrid  ... OptM3 with GC (2021)
Angular Grid (max. ang.)         AngularGrid ... 4 (Lebedev-302)
Angular grid pruning method      GridPruning ... 4 (adaptive)
Weight generation scheme         WeightScheme... Becke
Basis function cutoff            BFCut       ... 1.0000e-11
Integration weight cutoff        WCut        ... 1.0000e-14
Angular grids for H and He will be reduced by one unit
Partially contracted basis set               ... off
Rotationally invariant grid construction     ... off

Total number of grid points                  ...    25293
Total number of batches                      ...      398
Average number of points per batch           ...       63
Average number of grid points per atom       ...     4216
Time for grid setup =    0.081 sec

--------------------
COSX GRID GENERATION
--------------------

GRIDX 1
-------
General Integration Accuracy     IntAcc      ... 3.816
Radial Grid Type                 RadialGrid  ... OptM3 with GC (2021)
Angular Grid (max. ang.)         AngularGrid ... 1 (Lebedev-50)
Angular grid pruning method      GridPruning ... 4 (adaptive)
Weight generation scheme         WeightScheme... Becke
Basis function cutoff            BFCut       ... 1.0000e-11
Integration weight cutoff        WCut        ... 1.0000e-14
Angular grids for H and He will be reduced by one unit
Partially contracted basis set               ... on
Rotationally invariant grid construction     ... off

Total number of grid points                  ...     3288
Total number of batches                      ...       55
Average number of points per batch           ...       59
Average number of grid points per atom       ...      548
UseSFitting                                  ... on

GRIDX 2
-------
General Integration Accuracy     IntAcc      ... 4.020
Radial Grid Type                 RadialGrid  ... OptM3 with GC (2021)
Angular Grid (max. ang.)         AngularGrid ... 2 (Lebedev-110)
Angular grid pruning method      GridPruning ... 4 (adaptive)
Weight generation scheme         WeightScheme... Becke
Basis function cutoff            BFCut       ... 1.0000e-11
Integration weight cutoff        WCut        ... 1.0000e-14
Angular grids for H and He will be reduced by one unit
Partially contracted basis set               ... on
Rotationally invariant grid construction     ... off

Total number of grid points                  ...     6924
Total number of batches                      ...      112
Average number of points per batch           ...       61
Average number of grid points per atom       ...     1154
UseSFitting                                  ... on

GRIDX 3
-------
General Integration Accuracy     IntAcc      ... 4.338
Radial Grid Type                 RadialGrid  ... OptM3 with GC (2021)
Angular Grid (max. ang.)         AngularGrid ... 3 (Lebedev-194)
Angular grid pruning method      GridPruning ... 4 (adaptive)
Weight generation scheme         WeightScheme... Becke
Basis function cutoff            BFCut       ... 1.0000e-11
Integration weight cutoff        WCut        ... 1.0000e-14
Angular grids for H and He will be reduced by one unit
Partially contracted basis set               ... on
Rotationally invariant grid construction     ... off

Total number of grid points                  ...    15266
Total number of batches                      ...      241
Average number of points per batch           ...       63
Average number of grid points per atom       ...     2544
UseSFitting                                  ... on

Time for X-Grid setup             =    0.073 sec

--------------
SCF ITERATIONS
--------------
ITER       Energy         Delta-E        Max-DP      RMS-DP      [F,P]     Damp
               ***  Starting incremental Fock matrix formation  ***
  0   -115.5845240004   0.000000000000 0.06690946  0.00311077  0.3013527 0.7000
  1   -115.6339448537  -0.049420853291 0.03077380  0.00193515  0.1215556 0.7000
                               ***Turning on DIIS***
  2   -115.6523629807  -0.018418127020 0.04677952  0.00276775  0.0335035 0.0000
  3   -115.6826616951  -0.030298714389 0.02290930  0.00133563  0.0660803 0.0000
  4   -115.6887451384  -0.006083443225 0.00641982  0.00031742  0.0102960 0.0000
  5   -115.6889814375  -0.000236299151 0.00184841  0.00011381  0.0039999 0.0000
                      *** Initiating the SOSCF procedure ***
                           *** Shutting down DIIS ***
                      *** Re-Reading the Fockian *** 
                      *** Removing any level shift *** 
ITER      Energy       Delta-E        Grad      Rot      Max-DP    RMS-DP
  6   -115.68899961  -0.0000181710  0.000169  0.000169  0.000688  0.000052
               *** Restarting incremental Fock matrix formation ***
  7   -115.68900942  -0.0000098075  0.000056  0.000052  0.000146  0.000008
  8   -115.68900942  -0.0000000044  0.000070  0.000028  0.000066  0.000004
  9   -115.68900945  -0.0000000302  0.000006  0.000008  0.000021  0.000001
 10   -115.68900945   0.0000000006  0.000008  0.000005  0.000012  0.000000
                 **** Energy Check signals convergence ****
              ***Rediagonalizing the Fockian in SOSCF/NRSCF***

               *****************************************************
               *                     SUCCESS                       *
               *           SCF CONVERGED AFTER  11 CYCLES          *
               *****************************************************

Old exchange energy                            =     -2.974472223 Eh
New exchange energy                            =     -2.974494570 Eh
Exchange energy change after final integration =     -0.000022347 Eh
Total energy after final integration           =   -115.689031798 Eh
Final COS-X integration done in                =     0.120 sec

----------------
TOTAL SCF ENERGY
----------------

Total Energy       :         -115.68903180 Eh           -3148.05860 eV

Components:
Nuclear Repulsion  :           40.42735484 Eh            1100.08425 eV
Electronic Energy  :         -156.11638663 Eh           -4248.14285 eV
One Electron Energy:         -237.35967296 Eh           -6458.88506 eV
Two Electron Energy:           81.24328632 Eh            2210.74221 eV
Max COSX asymmetry :            0.00000102 Eh               0.00003 eV

Virial components:
Potential Energy   :         -231.17584040 Eh           -6290.61443 eV
Kinetic Energy     :          115.48680861 Eh            3142.55583 eV
Virial Ratio       :            2.00175105


DFT components:
N(Alpha)           :        8.999997635927 electrons
N(Beta)            :        8.999997635927 electrons
N(Total)           :       17.999995271853 electrons
E(X)               :      -11.822440115509 Eh       
E(C)               :       -0.705032308049 Eh       
E(XC)              :      -12.527472423558 Eh       
DFET-embed. en.    :        0.000000000000 Eh       

---------------
SCF CONVERGENCE
---------------

  Last Energy change         ...   -1.2289e-09  Tolerance :   1.0000e-08
  Last MAX-Density change    ...    5.5511e-16  Tolerance :   1.0000e-07
  Last RMS-Density change    ...    2.5477e-17  Tolerance :   5.0000e-09
  Last Orbital Gradient      ...    2.3988e-07  Tolerance :   1.0000e-05
  Last Orbital Rotation      ...    2.6245e-07  Tolerance :   1.0000e-05

             **** THE GBW FILE WAS UPDATED (ch3oh.gbw) ****
             **** DENSITY ch3oh.scfp WAS UPDATED ****
             **** ENERGY FILE WAS UPDATED (ch3oh.en.tmp) ****
             **** THE GBW FILE WAS UPDATED (ch3oh.gbw) ****
             **** DENSITY ch3oh.scfp WAS UPDATED ****
----------------
ORBITAL ENERGIES
----------------

  NO   OCC          E(Eh)            E(eV) 
   0   2.0000     -19.098098      -519.6857 
   1   2.0000     -10.198443      -277.5138 
   2   2.0000      -1.005050       -27.3488 
   3   2.0000      -0.684688       -18.6313 
   4   2.0000      -0.499545       -13.5933 
   5   2.0000      -0.440694       -11.9919 
   6   2.0000      -0.426459       -11.6045 
   7   2.0000      -0.327030        -8.8989 
   8   2.0000      -0.264481        -7.1969 
   9   0.0000       0.041122         1.1190 
  10   0.0000       0.077008         2.0955 
  11   0.0000       0.118470         3.2237 
  12   0.0000       0.123795         3.3686 
  13   0.0000       0.179304         4.8791 
  14   0.0000       0.314129         8.5479 
  15   0.0000       0.324957         8.8425 
  16   0.0000       0.401565        10.9271 
  17   0.0000       0.446718        12.1558 
  18   0.0000       0.538260        14.6468 
  19   0.0000       0.584169        15.8960 
  20   0.0000       0.590676        16.0731 
  21   0.0000       0.707018        19.2389 
  22   0.0000       0.797576        21.7032 
  23   0.0000       0.808108        21.9897 
  24   0.0000       0.876227        23.8433 
  25   0.0000       1.083168        29.4745 
  26   0.0000       1.151662        31.3383 
  27   0.0000       1.348536        36.6955 
  28   0.0000       1.387552        37.7572 
  29   0.0000       1.460831        39.7512 
  30   0.0000       1.467610        39.9357 
  31   0.0000       1.478074        40.2204 
  32   0.0000       1.482450        40.3395 
  33   0.0000       1.582226        43.0546 
  34   0.0000       1.684287        45.8318 
  35   0.0000       1.775138        48.3040 
  36   0.0000       1.967685        53.5434 
  37   0.0000       1.991049        54.1792 
  38   0.0000       2.100104        57.1467 
  39   0.0000       2.178297        59.2745 
  40   0.0000       2.309566        62.8465 
  41   0.0000       2.338730        63.6401 
  42   0.0000       2.401412        65.3457 
  43   0.0000       2.494893        67.8895 
  44   0.0000       2.512497        68.3685 
  45   0.0000       2.575406        70.0804 
  46   0.0000       2.787383        75.8486 
  47   0.0000       2.897925        78.8566 
  48   0.0000       3.074444        83.6599 
  49   0.0000       3.206012        87.2400 
  50   0.0000       3.290354        89.5351 
  51   0.0000       3.692852       100.4876 
  52   0.0000       3.831524       104.2611 
  53   0.0000       3.904799       106.2550 
  54   0.0000       3.930674       106.9591 
  55   0.0000       4.851692       132.0212 
  56   0.0000       5.218358       141.9987 
  57   0.0000       5.638981       153.4445 
  58   0.0000      23.919087       650.8715 
  59   0.0000      49.877963      1357.2484 

                    ********************************
                    * MULLIKEN POPULATION ANALYSIS *
                    ********************************

-----------------------
MULLIKEN ATOMIC CHARGES
-----------------------
   0 C :   -0.107379
   1 H :    0.091673
   2 H :    0.110929
   3 H :    0.091593
   4 O :   -0.423140
   5 H :    0.236324
Sum of atomic charges:   -0.0000000

--------------------------------
MULLIKEN REDUCED ORBITAL CHARGES
--------------------------------
  0 C s       :     3.134542  s :     3.134542
      pz      :     0.874545  p :     2.894280
      px      :     1.011512
      py      :     1.008223
      dz2     :     0.020225  d :     0.078557
      dxz     :     0.014598
      dyz     :     0.019075
      dx2y2   :     0.017122
      dxy     :     0.007538
  1 H s       :     0.886296  s :     0.886296
      pz      :     0.003672  p :     0.022031
      px      :     0.006205
      py      :     0.012155
  2 H s       :     0.866390  s :     0.866390
      pz      :     0.010094  p :     0.022680
      px      :     0.005721
      py      :     0.006866
  3 H s       :     0.886373  s :     0.886373
      pz      :     0.003604  p :     0.022034
      px      :     0.013025
      py      :     0.005405
  4 O s       :     3.802639  s :     3.802639
      pz      :     1.168783  p :     4.608646
      px      :     1.789361
      py      :     1.650502
      dz2     :     0.001204  d :     0.011855
      dxz     :     0.002387
      dyz     :     0.004949
      dx2y2   :     0.001423
      dxy     :     0.001891
  5 H s       :     0.697957  s :     0.697957
      pz      :     0.024911  p :     0.065719
      px      :     0.020606
      py      :     0.020201


                     *******************************
                     * LOEWDIN POPULATION ANALYSIS *
                     *******************************

----------------------
LOEWDIN ATOMIC CHARGES
----------------------
   0 C :    0.067211
   1 H :   -0.014483
   2 H :    0.001740
   3 H :   -0.014494
   4 O :   -0.062684
   5 H :    0.022711

-------------------------------
LOEWDIN REDUCED ORBITAL CHARGES
-------------------------------
  0 C s       :     2.766685  s :     2.766685
      pz      :     0.920013  p :     2.994475
      px      :     1.039689
      py      :     1.034773
      dz2     :     0.040997  d :     0.171629
      dxz     :     0.030172
      dyz     :     0.042845
      dx2y2   :     0.042284
      dxy     :     0.015331
  1 H s       :     0.944272  s :     0.944272
      pz      :     0.012927  p :     0.070211
      px      :     0.017514
      py      :     0.039770
  2 H s       :     0.930181  s :     0.930181
      pz      :     0.031234  p :     0.068080
      px      :     0.015645
      py      :     0.021202
  3 H s       :     0.944283  s :     0.944283
      pz      :     0.012488  p :     0.070211
      px      :     0.043624
      py      :     0.014099
  4 O s       :     3.394225  s :     3.394225
      pz      :     1.211974  p :     4.651591
      px      :     1.771369
      py      :     1.668248
      dz2     :     0.002639  d :     0.016868
      dxz     :     0.003671
      dyz     :     0.007388
      dx2y2   :     0.001287
      dxy     :     0.001882
  5 H s       :     0.781008  s :     0.781008
      pz      :     0.073951  p :     0.196281
      px      :     0.056295
      py      :     0.066036


                      *****************************
                      * MAYER POPULATION ANALYSIS *
                      *****************************

  NA   - Mulliken gross atomic population
  ZA   - Total nuclear charge
  QA   - Mulliken gross atomic charge
  VA   - Mayer's total valence
  BVA  - Mayer's bonded valence
  FA   - Mayer's free valence

  ATOM       NA         ZA         QA         VA         BVA        FA
  0 C      6.1074     6.0000    -0.1074     3.8963     3.8963    -0.0000
  1 H      0.9083     1.0000     0.0917     0.9585     0.9585     0.0000
  2 H      0.8891     1.0000     0.1109     0.9656     0.9656     0.0000
  3 H      0.9084     1.0000     0.0916     0.9586     0.9586    -0.0000
  4 O      8.4231     8.0000    -0.4231     1.9555     1.9555    -0.0000
  5 H      0.7637     1.0000     0.2363     0.9789     0.9789    -0.0000

  Mayer bond orders larger than 0.100000
B(  0-C ,  1-H ) :   0.9694 B(  0-C ,  2-H ) :   0.9732 B(  0-C ,  3-H ) :   0.9695 
B(  0-C ,  4-O ) :   0.9743 B(  4-O ,  5-H ) :   0.9600 

-------
TIMINGS
-------

Total SCF time: 0 days 0 hours 0 min 1 sec 

Total time                  ....       1.663 sec
Sum of individual times     ....       1.562 sec  ( 93.9%)

Fock matrix formation       ....       1.335 sec  ( 80.3%)
  Split-RI-J                ....       0.172 sec  ( 12.9% of F)
  Chain of spheres X        ....       0.741 sec  ( 55.5% of F)
  XC integration            ....       0.362 sec  ( 27.1% of F)
    Basis function eval.    ....       0.108 sec  ( 29.8% of XC)
    Density eval.           ....       0.061 sec  ( 16.9% of XC)
    XC-Functional eval.     ....       0.035 sec  (  9.7% of XC)
    XC-Potential eval.      ....       0.057 sec  ( 15.6% of XC)
Diagonalization             ....       0.009 sec  (  0.6%)
Density matrix formation    ....       0.001 sec  (  0.1%)
Population analysis         ....       0.005 sec  (  0.3%)
Initial guess               ....       0.020 sec  (  1.2%)
Orbital Transformation      ....       0.000 sec  (  0.0%)
Orbital Orthonormalization  ....       0.000 sec  (  0.0%)
DIIS solution               ....       0.017 sec  (  1.0%)
SOSCF solution              ....       0.006 sec  (  0.4%)
Grid generation             ....       0.168 sec  ( 10.1%)

Maximum memory used throughout the entire SCF-calculation: 44.6 MB

-------------------------   --------------------
FINAL SINGLE POINT ENERGY      -115.689031798180
-------------------------   --------------------



           ************************************************************
           *        Program running with 4 parallel MPI-processes     *
           *              working on a common directory               *
           ************************************************************
------------------------------------------------------------------------------
                         ORCA SCF GRADIENT CALCULATION
------------------------------------------------------------------------------

 ... reading COSX grid (gridx3)
Gradient of the Kohn-Sham DFT energy:
Kohn-Sham wavefunction type      ... RKS
Hartree-Fock exchange scaling    ...    0.200
Number of operators              ...    1
Number of atoms                  ...    6
Basis set dimensions             ...   60
Integral neglect threshold       ... 2.5e-11
Integral primitive cutoff        ... 2.5e-12
SHARK Integral package           ... ON

Nuc. rep. gradient       (SHARK) ... done (  0.0 sec)
HCore & Overlap gradient (SHARK) ... done (  0.0 sec)
RI-J gradient            (SHARK) ... done (  0.0 sec)
COSX-gradient                    ... done (  0.2 sec)
Exchange-correlation gradient    ... done

------------------
CARTESIAN GRADIENT
------------------

   1   C   :   -0.005348599   -0.003221675    0.026137405
   2   H   :   -0.004511666    0.017871767   -0.006752357
   3   H   :   -0.005376540   -0.009476302   -0.008718668
   4   H   :    0.019155141    0.001814749   -0.003896147
   5   O   :   -0.005953258   -0.009683042   -0.004694972
   6   H   :    0.002020638    0.002603472   -0.002184823

Difference to translation invariance:
           :   -0.0000142844   -0.0000910303   -0.0001095634

Difference to rotation invariance:
           :   -0.0004264995    0.0006742228   -0.0004806014

Norm of the cartesian gradient     ...    0.0430638522
RMS gradient                       ...    0.0101502473
MAX gradient                       ...    0.0261374049

-------
TIMINGS
-------

Total SCF gradient time            ...        0.419 sec

One electron gradient       ....       0.004 sec  (  1.1%)
RI-J Coulomb gradient       ....       0.044 sec  ( 10.5%)
COSX gradient               ....       0.157 sec  ( 37.4%)
XC gradient                 ....       0.123 sec  ( 29.3%)

Maximum memory used throughout the entire SCFGRAD-calculation: 33.9 MB
------------------------------------------------------------------------------
                         ORCA GEOMETRY RELAXATION STEP
------------------------------------------------------------------------------

Reading the OPT-File                    .... done
Getting information on internals        .... done
Copying old internal coords+grads       .... done
Making the new internal coordinates     .... (new redundants).... done
Validating the new internal coordinates .... (new redundants).... done
Calculating the B-matrix                .... done
Calculating the G,G- and P matrices     .... done
Transforming gradient to internals      .... done
Projecting the internal gradient        .... done
Number of atoms                         ....   6
Number of internal coordinates          ....  15
Current Energy                          ....  -115.689031798 Eh
Current gradient norm                   ....     0.043063852 Eh/bohr
Maximum allowed component of the step   ....  0.300
Current trust radius                    ....  0.300
Evaluating the initial hessian          ....  (Almloef) done
Projecting the Hessian                  .... done
Forming the augmented Hessian           .... done
Diagonalizing the augmented Hessian     .... done
Last element of RFO vector              ....  0.995254648
Lowest eigenvalues of augmented Hessian:
 -0.003388436  0.018418068  0.194223806  0.194429079  0.319192235
Length of the computed step             ....  0.097768548
The final length of the internal step   ....  0.097768548
Converting the step to cartesian space:
 Initial RMS(Int)=    0.0252437305
Transforming coordinates:
 Iter   0:  RMS(Cart)=    0.0237733657 RMS(Int)=    0.0252741463
 Iter   1:  RMS(Cart)=    0.0002874909 RMS(Int)=    0.0003122024
 Iter   2:  RMS(Cart)=    0.0000067780 RMS(Int)=    0.0000077507
 Iter   3:  RMS(Cart)=    0.0000001287 RMS(Int)=    0.0000001088
 Iter   4:  RMS(Cart)=    0.0000000029 RMS(Int)=    0.0000000031
done
Storing new coordinates                 .... done

                                .--------------------.
          ----------------------|Geometry convergence|-------------------------
          Item                value                   Tolerance       Converged
          ---------------------------------------------------------------------
          RMS gradient        0.0090773045            0.0001000000      NO
          MAX gradient        0.0187654734            0.0003000000      NO
          RMS step            0.0252437305            0.0020000000      NO
          MAX step            0.0480006472            0.0040000000      NO
          ........................................................
          Max(Bonds)      0.0254      Max(Angles)    1.89
          Max(Dihed)        0.95      Max(Improp)    0.00
          ---------------------------------------------------------------------

The optimization has not yet converged - more geometry cycles are needed


    ---------------------------------------------------------------------------
                         Redundant Internal Coordinates
                            (Angstroem and degrees)

        Definition                    Value    dE/dq     Step     New-Value
    ----------------------------------------------------------------------------
     1. B(H   1,C   0)                1.0700 -0.018765  0.0254    1.0954   
     2. B(H   2,C   0)                1.0700 -0.013346  0.0181    1.0881   
     3. B(H   3,C   0)                1.0700 -0.018762  0.0254    1.0954   
     4. B(O   4,C   0)                1.4300  0.000825 -0.0009    1.4291   
     5. B(H   5,O   4)                0.9600 -0.000093  0.0001    0.9601   
     6. A(H   1,C   0,H   3)          109.47  0.003140   -0.09    109.38   
     7. A(H   1,C   0,H   2)          109.47  0.002067   -0.60    108.87   
     8. A(H   1,C   0,O   4)          109.47 -0.008772    1.59    111.06   
     9. A(H   2,C   0,O   4)          109.47  0.010254   -1.89    107.58   
    10. A(H   3,C   0,O   4)          109.47 -0.008753    1.59    111.06   
    11. A(H   2,C   0,H   3)          109.47  0.002064   -0.60    108.87   
    12. A(C   0,O   4,H   5)          109.47  0.007225   -1.16    108.32   
    13. D(H   5,O   4,C   0,H   2)    180.00  0.000007   -0.03    179.97   
    14. D(H   5,O   4,C   0,H   3)    -60.00  0.003454   -0.95    -60.95   
    15. D(H   5,O   4,C   0,H   1)     60.00 -0.003432    0.90     60.90   
    ----------------------------------------------------------------------------

         *************************************************************
         *                GEOMETRY OPTIMIZATION CYCLE   2            *
         *************************************************************
---------------------------------
CARTESIAN COORDINATES (ANGSTROEM)
---------------------------------
  C      2.480065    0.373762    0.020956
  H      2.859608   -0.648586    0.124176
  H      2.760124    0.944015    0.904282
  H      1.387467    0.349530   -0.053441
  O      3.057434    1.023567   -1.113386
  H      2.816862    0.528085   -1.899773

----------------------------
CARTESIAN COORDINATES (A.U.)
----------------------------
  NO LB      ZA    FRAG     MASS         X           Y           Z
   0 C     6.0000    0    12.011    4.686644    0.706309    0.039602
   1 H     1.0000    0     1.008    5.403877   -1.225649    0.234659
   2 H     1.0000    0     1.008    5.215878    1.783931    1.708846
   3 H     1.0000    0     1.008    2.621933    0.660516   -0.100988
   4 O     8.0000    0    15.999    5.777713    1.934262   -2.103996
   5 H     1.0000    0     1.008    5.323098    0.997935   -3.590050

--------------------------------
INTERNAL COORDINATES (ANGSTROEM)
--------------------------------
 C      0   0   0     0.000000000000     0.00000000     0.00000000
 H      1   0   0     1.095400853566     0.00000000     0.00000000
 H      1   2   0     1.088065432473   108.87252547     0.00000000
 H      1   2   3     1.095395937145   109.35111407   241.15999425
 O      1   2   3     1.429102867883   111.04991300   118.27135657
 H      5   1   2     0.960094262729   108.31516928    60.92660103

---------------------------
INTERNAL COORDINATES (A.U.)
---------------------------
 C      0   0   0     0.000000000000     0.00000000     0.00000000
 H      1   0   0     2.070007620103     0.00000000     0.00000000
 H      1   2   0     2.056145683160   108.87252547     0.00000000
 H      1   2   3     2.069998329415   109.35111407   241.15999425
 O      1   2   3     2.700613037501   111.04991300   118.27135657
 H      5   1   2     1.814315219307   108.31516928    60.92660103



           ************************************************************
           *        Program running with 4 parallel MPI-processes     *
           *              working on a common directory               *
           ************************************************************
------------------------------------------------------------------------------
                   ___                                                        
                  /   \      - P O W E R E D   B Y -                         
                 /     \                                                     
                 |  |  |   _    _      __       _____    __    __             
                 |  |  |  | |  | |    /  \     |  _  \  |  |  /  |          
                  \  \/   | |  | |   /    \    | | | |  |  | /  /          
                 / \  \   | |__| |  /  /\  \   | |_| |  |  |/  /          
                |  |  |   |  __  | /  /__\  \  |    /   |      \           
                |  |  |   | |  | | |   __   |  |    \   |  |\   \          
                \     /   | |  | | |  |  |  |  | |\  \  |  | \   \       
                 \___/    |_|  |_| |__|  |__|  |_| \__\ |__|  \__/        
                                                                              
                      - O R C A' S   B I G   F R I E N D -                    
                                      &                                       
                       - I N T E G R A L  F E E D E R -                       
                                                                              
 v1 FN, 2020, v2 2021                                                         
------------------------------------------------------------------------------


Reading SHARK input file ch3oh.SHARKINP.tmp ... ok
----------------------
SHARK INTEGRAL PACKAGE
----------------------

Number of atoms                             ...      6
Number of basis functions                   ...     60
Number of shells                            ...     32
Maximum angular momentum                    ...      2
Integral batch strategy                     ... SHARK/LIBINT Hybrid
RI-J (if used) integral strategy            ... SPLIT-RIJ (Revised 2003 algorithm where possible)
Printlevel                                  ...      1
Contraction scheme used                     ... SEGMENTED contraction
Coulomb Range Separation                    ... NOT USED
Exchange Range Separation                   ... NOT USED
Finite Nucleus Model                        ... NOT USED
Auxiliary Coulomb fitting basis             ... AVAILABLE
   # of basis functions in Aux-J            ...    142
   # of shells in Aux-J                     ...     50
   Maximum angular momentum in Aux-J        ...      4
Auxiliary J/K fitting basis                 ... NOT available
Auxiliary Correlation fitting basis         ... NOT available
Auxiliary 'external' fitting basis          ... NOT available
Integral threshold                          ...     2.500000e-11
Primitive cut-off                           ...     2.500000e-12
Primitive pair pre-selection threshold      ...     2.500000e-12

Calculating pre-screening integrals         ... done (  0.0 sec) Dimension = 32
Organizing shell pair data                  ... done (  0.0 sec)
Shell pair information
Total number of shell pairs                 ...       528
Shell pairs after pre-screening             ...       528
Total number of primitive shell pairs       ...      1765
Primitive shell pairs kept                  ...      1551
          la=0 lb=0:    210 shell pairs
          la=1 lb=0:    200 shell pairs
          la=1 lb=1:     55 shell pairs
          la=2 lb=0:     40 shell pairs
          la=2 lb=1:     20 shell pairs
          la=2 lb=2:      3 shell pairs

Calculating one electron integrals          ... done (  0.0 sec)
Calculating RI/J V-Matrix + Cholesky decomp.... done (  0.0 sec)
Calculating Nuclear repulsion               ... done (  0.0 sec) ENN=     40.177893007284 Eh

SHARK setup successfully completed in   0.1 seconds

Maximum memory used throughout the entire GTOINT-calculation: 10.0 MB


           ************************************************************
           *        Program running with 4 parallel MPI-processes     *
           *              working on a common directory               *
           ************************************************************

Diagonalization of the overlap matrix:
Smallest eigenvalue                        ... 9.048e-03
Time for diagonalization                   ...    0.001 sec
Threshold for overlap eigenvalues          ... 1.000e-08
Number of eigenvalues below threshold      ... 0
Time for construction of square roots      ...    0.001 sec
Total time needed                          ...    0.002 sec

-------------------
DFT GRID GENERATION
-------------------

General Integration Accuracy     IntAcc      ... 4.388
Radial Grid Type                 RadialGrid  ... OptM3 with GC (2021)
Angular Grid (max. ang.)         AngularGrid ... 4 (Lebedev-302)
Angular grid pruning method      GridPruning ... 4 (adaptive)
Weight generation scheme         WeightScheme... Becke
Basis function cutoff            BFCut       ... 1.0000e-11
Integration weight cutoff        WCut        ... 1.0000e-14
Angular grids for H and He will be reduced by one unit
Partially contracted basis set               ... off
Rotationally invariant grid construction     ... off

Total number of grid points                  ...    25299
Total number of batches                      ...      398
Average number of points per batch           ...       63
Average number of grid points per atom       ...     4216
Time for grid setup =    0.084 sec

--------------------
COSX GRID GENERATION
--------------------

GRIDX 1
-------
General Integration Accuracy     IntAcc      ... 3.816
Radial Grid Type                 RadialGrid  ... OptM3 with GC (2021)
Angular Grid (max. ang.)         AngularGrid ... 1 (Lebedev-50)
Angular grid pruning method      GridPruning ... 4 (adaptive)
Weight generation scheme         WeightScheme... Becke
Basis function cutoff            BFCut       ... 1.0000e-11
Integration weight cutoff        WCut        ... 1.0000e-14
Angular grids for H and He will be reduced by one unit
Partially contracted basis set               ... on
Rotationally invariant grid construction     ... off

Total number of grid points                  ...     3287
Total number of batches                      ...       55
Average number of points per batch           ...       59
Average number of grid points per atom       ...      548
UseSFitting                                  ... on

GRIDX 2
-------
General Integration Accuracy     IntAcc      ... 4.020
Radial Grid Type                 RadialGrid  ... OptM3 with GC (2021)
Angular Grid (max. ang.)         AngularGrid ... 2 (Lebedev-110)
Angular grid pruning method      GridPruning ... 4 (adaptive)
Weight generation scheme         WeightScheme... Becke
Basis function cutoff            BFCut       ... 1.0000e-11
Integration weight cutoff        WCut        ... 1.0000e-14
Angular grids for H and He will be reduced by one unit
Partially contracted basis set               ... on
Rotationally invariant grid construction     ... off

Total number of grid points                  ...     6928
Total number of batches                      ...      113
Average number of points per batch           ...       61
Average number of grid points per atom       ...     1155
UseSFitting                                  ... on

GRIDX 3
-------
General Integration Accuracy     IntAcc      ... 4.338
Radial Grid Type                 RadialGrid  ... OptM3 with GC (2021)
Angular Grid (max. ang.)         AngularGrid ... 3 (Lebedev-194)
Angular grid pruning method      GridPruning ... 4 (adaptive)
Weight generation scheme         WeightScheme... Becke
Basis function cutoff            BFCut       ... 1.0000e-11
Integration weight cutoff        WCut        ... 1.0000e-14
Angular grids for H and He will be reduced by one unit
Partially contracted basis set               ... on
Rotationally invariant grid construction     ... off

Total number of grid points                  ...    15269
Total number of batches                      ...      241
Average number of points per batch           ...       63
Average number of grid points per atom       ...     2545
UseSFitting                                  ... on

Time for X-Grid setup             =    0.091 sec

--------------
SCF ITERATIONS
--------------
ITER       Energy         Delta-E        Max-DP      RMS-DP      [F,P]     Damp
               ***  Starting incremental Fock matrix formation  ***
  0   -115.6906460749   0.000000000000 0.00164625  0.00011237  0.0091362 0.7000
                      *** Initiating the SOSCF procedure ***
                      *** Re-Reading the Fockian *** 
                      *** Removing any level shift *** 
ITER      Energy       Delta-E        Grad      Rot      Max-DP    RMS-DP
  1   -115.69076185  -0.0001157793  0.000850  0.000850  0.004411  0.000346
               *** Restarting incremental Fock matrix formation ***
  2   -115.69099967  -0.0002378163  0.001282  0.001891  0.005236  0.000165
  3   -115.69099277   0.0000068985  0.001610  0.001083  0.002352  0.000083
  4   -115.69102058  -0.0000278123  0.000241  0.000212  0.000473  0.000023
  5   -115.69102036   0.0000002246  0.000319  0.000122  0.000262  0.000013
  6   -115.69102088  -0.0000005203  0.000011  0.000011  0.000014  0.000001
                 **** Energy Check signals convergence ****
              ***Rediagonalizing the Fockian in SOSCF/NRSCF***

               *****************************************************
               *                     SUCCESS                       *
               *           SCF CONVERGED AFTER   7 CYCLES          *
               *****************************************************

Old exchange energy                            =     -2.968900893 Eh
New exchange energy                            =     -2.968921169 Eh
Exchange energy change after final integration =     -0.000020276 Eh
Total energy after final integration           =   -115.691041156 Eh
Final COS-X integration done in                =     0.120 sec
Total Energy       :         -115.69104116 Eh           -3148.11328 eV
  Last Energy change         ...   -6.6569e-10  Tolerance :   1.0000e-08
  Last MAX-Density change    ...    5.5511e-16  Tolerance :   1.0000e-07
             **** THE GBW FILE WAS UPDATED (ch3oh.gbw) ****
             **** DENSITY ch3oh.scfp WAS UPDATED ****
             **** ENERGY FILE WAS UPDATED (ch3oh.en.tmp) ****
             **** THE GBW FILE WAS UPDATED (ch3oh.gbw) ****
             **** DENSITY ch3oh.scfp WAS UPDATED ****
Total SCF time: 0 days 0 hours 0 min 1 sec 

Maximum memory used throughout the entire SCF-calculation: 44.6 MB

-------------------------   --------------------
FINAL SINGLE POINT ENERGY      -115.691041156414
-------------------------   --------------------



           ************************************************************
           *        Program running with 4 parallel MPI-processes     *
           *              working on a common directory               *
           ************************************************************
------------------------------------------------------------------------------
                         ORCA SCF GRADIENT CALCULATION
------------------------------------------------------------------------------

 ... reading COSX grid (gridx3)
Gradient of the Kohn-Sham DFT energy:
Kohn-Sham wavefunction type      ... RKS
Hartree-Fock exchange scaling    ...    0.200
Number of operators              ...    1
Number of atoms                  ...    6
Basis set dimensions             ...   60
Integral neglect threshold       ... 2.5e-11
Integral primitive cutoff        ... 2.5e-12
SHARK Integral package           ... ON

Nuc. rep. gradient       (SHARK) ... done (  0.0 sec)
HCore & Overlap gradient (SHARK) ... done (  0.0 sec)
RI-J gradient            (SHARK) ... done (  0.0 sec)
COSX-gradient                    ... done (  0.2 sec)
Exchange-correlation gradient    ... done

------------------
CARTESIAN GRADIENT
------------------

   1   C   :   -0.001437828   -0.000211349    0.010711058
   2   H   :    0.000770637    0.001811294   -0.002767848
   3   H   :   -0.000760268   -0.001218458   -0.000575997
   4   H   :    0.001850461    0.001073173   -0.002641264
   5   O   :   -0.001398783   -0.002899791   -0.004550662
   6   H   :    0.000940547    0.001359480   -0.000199261

Difference to translation invariance:
           :   -0.0000352346   -0.0000856517   -0.0000239743

Difference to rotation invariance:
           :   -0.0002621100    0.0002451119   -0.0004004716

Norm of the cartesian gradient     ...    0.0132728090
RMS gradient                       ...    0.0031284311
MAX gradient                       ...    0.0107110578

-------
TIMINGS
-------

Total SCF gradient time            ...        0.418 sec

One electron gradient       ....       0.004 sec  (  0.9%)
RI-J Coulomb gradient       ....       0.044 sec  ( 10.5%)
COSX gradient               ....       0.159 sec  ( 37.9%)
XC gradient                 ....       0.122 sec  ( 29.3%)

Maximum memory used throughout the entire SCFGRAD-calculation: 33.9 MB
------------------------------------------------------------------------------
                         ORCA GEOMETRY RELAXATION STEP
------------------------------------------------------------------------------

Reading the OPT-File                    .... done
Getting information on internals        .... done
Copying old internal coords+grads       .... done
Making the new internal coordinates     .... (new redundants).... done
Validating the new internal coordinates .... (new redundants).... done
Calculating the B-matrix                .... done
Calculating the G,G- and P matrices     .... done
Transforming gradient to internals      .... done
Projecting the internal gradient        .... done
Number of atoms                         ....   6
Number of internal coordinates          ....  15
Current Energy                          ....  -115.691041156 Eh
Current gradient norm                   ....     0.013272809 Eh/bohr
Maximum allowed component of the step   ....  0.300
Current trust radius                    ....  0.300
Updating the Hessian (BFGS)             .... done
Forming the augmented Hessian           .... done
Diagonalizing the augmented Hessian     .... done
Last element of RFO vector              ....  0.999264541
Lowest eigenvalues of augmented Hessian:
 -0.000338802  0.018418009  0.182015669  0.194223808  0.261025161
Length of the computed step             ....  0.038373720
The final length of the internal step   ....  0.038373720
Converting the step to cartesian space:
 Initial RMS(Int)=    0.0099080520
Transforming coordinates:
 Iter   0:  RMS(Cart)=    0.0093082217 RMS(Int)=    0.0099241150
 Iter   1:  RMS(Cart)=    0.0000761004 RMS(Int)=    0.0000836601
 Iter   2:  RMS(Cart)=    0.0000008369 RMS(Int)=    0.0000007709
 Iter   3:  RMS(Cart)=    0.0000000141 RMS(Int)=    0.0000000158
done
Storing new coordinates                 .... done

                                .--------------------.
          ----------------------|Geometry convergence|-------------------------
          Item                value                   Tolerance       Converged
          ---------------------------------------------------------------------
          Energy change      -0.0020093582            0.0000050000      NO
          RMS gradient        0.0023347711            0.0001000000      NO
          MAX gradient        0.0041251197            0.0003000000      NO
          RMS step            0.0099080520            0.0020000000      NO
          MAX step            0.0178596359            0.0040000000      NO
          ........................................................
          Max(Bonds)      0.0041      Max(Angles)    1.02
          Max(Dihed)        0.49      Max(Improp)    0.00
          ---------------------------------------------------------------------

The optimization has not yet converged - more geometry cycles are needed


    ---------------------------------------------------------------------------
                         Redundant Internal Coordinates
                            (Angstroem and degrees)

        Definition                    Value    dE/dq     Step     New-Value
    ----------------------------------------------------------------------------
     1. B(H   1,C   0)                1.0954 -0.001691  0.0041    1.0995   
     2. B(H   2,C   0)                1.0881 -0.001294  0.0031    1.0911   
     3. B(H   3,C   0)                1.0954 -0.001694  0.0041    1.0995   
     4. B(O   4,C   0)                1.4291  0.002906 -0.0040    1.4251   
     5. B(H   5,O   4)                0.9601 -0.000804  0.0010    0.9611   
     6. A(H   1,C   0,H   3)          109.35  0.002305   -0.28    109.07   
     7. A(H   1,C   0,H   2)          108.87  0.001461   -0.47    108.41   
     8. A(H   1,C   0,O   4)          111.05 -0.004125    1.02    112.07   
     9. A(H   2,C   0,O   4)          107.58  0.003224   -0.84    106.74   
    10. A(H   3,C   0,O   4)          111.05 -0.004123    1.02    112.07   
    11. A(H   2,C   0,H   3)          108.87  0.001460   -0.47    108.41   
    12. A(C   0,O   4,H   5)          108.32  0.002727   -0.60    107.71   
    13. D(H   5,O   4,C   0,H   2)    179.97  0.000005   -0.02    179.96   
    14. D(H   5,O   4,C   0,H   3)    -60.98  0.001392   -0.49    -61.47   
    15. D(H   5,O   4,C   0,H   1)     60.93 -0.001382    0.45     61.38   
    ----------------------------------------------------------------------------

         *************************************************************
         *                GEOMETRY OPTIMIZATION CYCLE   3            *
         *************************************************************
---------------------------------
CARTESIAN COORDINATES (ANGSTROEM)
---------------------------------
  C      2.479616    0.371609    0.012337
  H      2.856693   -0.654369    0.130868
  H      2.763472    0.947189    0.894770
  H      1.382043    0.345445   -0.046929
  O      3.060504    1.028738   -1.110873
  H      2.819232    0.531762   -1.897358

----------------------------
CARTESIAN COORDINATES (A.U.)
----------------------------
  NO LB      ZA    FRAG     MASS         X           Y           Z
   0 C     6.0000    0    12.011    4.685795    0.702239    0.023314
   1 H     1.0000    0     1.008    5.398368   -1.236577    0.247304
   2 H     1.0000    0     1.008    5.222205    1.789929    1.690871
   3 H     1.0000    0     1.008    2.611683    0.652797   -0.088684
   4 O     8.0000    0    15.999    5.783514    1.944033   -2.099246
   5 H     1.0000    0     1.008    5.327577    1.004885   -3.585487

--------------------------------
INTERNAL COORDINATES (ANGSTROEM)
--------------------------------
 C      0   0   0     0.000000000000     0.00000000     0.00000000
 H      1   0   0     1.099484567193     0.00000000     0.00000000
 H      1   2   0     1.091125532768   108.41135145     0.00000000
 H      1   2   3     1.099482888282   109.02426150   242.16723808
 O      1   2   3     1.425079607990   112.05288749   117.54875190
 H      5   1   2     0.961121657671   107.71020397    61.41682392

---------------------------
INTERNAL COORDINATES (A.U.)
---------------------------
 C      0   0   0     0.000000000000     0.00000000     0.00000000
 H      1   0   0     2.077724720467     0.00000000     0.00000000
 H      1   2   0     2.061928434660   108.41135145     0.00000000
 H      1   2   3     2.077721547787   109.02426150   242.16723808
 O      1   2   3     2.693010178137   112.05288749   117.54875190
 H      5   1   2     1.816256714379   107.71020397    61.41682392



           ************************************************************
           *        Program running with 4 parallel MPI-processes     *
           *              working on a common directory               *
           ************************************************************
------------------------------------------------------------------------------
                   ___                                                        
                  /   \      - P O W E R E D   B Y -                         
                 /     \                                                     
                 |  |  |   _    _      __       _____    __    __             
                 |  |  |  | |  | |    /  \     |  _  \  |  |  /  |          
                  \  \/   | |  | |   /    \    | | | |  |  | /  /          
                 / \  \   | |__| |  /  /\  \   | |_| |  |  |/  /          
                |  |  |   |  __  | /  /__\  \  |    /   |      \           
                |  |  |   | |  | | |   __   |  |    \   |  |\   \          
                \     /   | |  | | |  |  |  |  | |\  \  |  | \   \       
                 \___/    |_|  |_| |__|  |__|  |_| \__\ |__|  \__/        
                                                                              
                      - O R C A' S   B I G   F R I E N D -                    
                                      &                                       
                       - I N T E G R A L  F E E D E R -                       
                                                                              
 v1 FN, 2020, v2 2021                                                         
------------------------------------------------------------------------------


Reading SHARK input file ch3oh.SHARKINP.tmp ... ok
----------------------
SHARK INTEGRAL PACKAGE
----------------------

Number of atoms                             ...      6
Number of basis functions                   ...     60
Number of shells                            ...     32
Maximum angular momentum                    ...      2
Integral batch strategy                     ... SHARK/LIBINT Hybrid
RI-J (if used) integral strategy            ... SPLIT-RIJ (Revised 2003 algorithm where possible)
Printlevel                                  ...      1
Contraction scheme used                     ... SEGMENTED contraction
Coulomb Range Separation                    ... NOT USED
Exchange Range Separation                   ... NOT USED
Finite Nucleus Model                        ... NOT USED
Auxiliary Coulomb fitting basis             ... AVAILABLE
   # of basis functions in Aux-J            ...    142
   # of shells in Aux-J                     ...     50
   Maximum angular momentum in Aux-J        ...      4
Auxiliary J/K fitting basis                 ... NOT available
Auxiliary Correlation fitting basis         ... NOT available
Auxiliary 'external' fitting basis          ... NOT available
Integral threshold                          ...     2.500000e-11
Primitive cut-off                           ...     2.500000e-12
Primitive pair pre-selection threshold      ...     2.500000e-12

Calculating pre-screening integrals         ... done (  0.0 sec) Dimension = 32
Organizing shell pair data                  ... done (  0.0 sec)
Shell pair information
Total number of shell pairs                 ...       528
Shell pairs after pre-screening             ...       528
Total number of primitive shell pairs       ...      1765
Primitive shell pairs kept                  ...      1551
          la=0 lb=0:    210 shell pairs
          la=1 lb=0:    200 shell pairs
          la=1 lb=1:     55 shell pairs
          la=2 lb=0:     40 shell pairs
          la=2 lb=1:     20 shell pairs
          la=2 lb=2:      3 shell pairs

Calculating one electron integrals          ... done (  0.0 sec)
Calculating RI/J V-Matrix + Cholesky decomp.... done (  0.0 sec)
Calculating Nuclear repulsion               ... done (  0.0 sec) ENN=     40.189631887265 Eh

SHARK setup successfully completed in   0.1 seconds

Maximum memory used throughout the entire GTOINT-calculation: 10.0 MB


           ************************************************************
           *        Program running with 4 parallel MPI-processes     *
           *              working on a common directory               *
           ************************************************************

Diagonalization of the overlap matrix:
Smallest eigenvalue                        ... 9.064e-03
Time for diagonalization                   ...    0.001 sec
Threshold for overlap eigenvalues          ... 1.000e-08
Number of eigenvalues below threshold      ... 0
Time for construction of square roots      ...    0.001 sec
Total time needed                          ...    0.002 sec

-------------------
DFT GRID GENERATION
-------------------

General Integration Accuracy     IntAcc      ... 4.388
Radial Grid Type                 RadialGrid  ... OptM3 with GC (2021)
Angular Grid (max. ang.)         AngularGrid ... 4 (Lebedev-302)
Angular grid pruning method      GridPruning ... 4 (adaptive)
Weight generation scheme         WeightScheme... Becke
Basis function cutoff            BFCut       ... 1.0000e-11
Integration weight cutoff        WCut        ... 1.0000e-14
Angular grids for H and He will be reduced by one unit
Partially contracted basis set               ... off
Rotationally invariant grid construction     ... off

Total number of grid points                  ...    25299
Total number of batches                      ...      398
Average number of points per batch           ...       63
Average number of grid points per atom       ...     4216
Time for grid setup =    0.082 sec

--------------------
COSX GRID GENERATION
--------------------

GRIDX 1
-------
General Integration Accuracy     IntAcc      ... 3.816
Radial Grid Type                 RadialGrid  ... OptM3 with GC (2021)
Angular Grid (max. ang.)         AngularGrid ... 1 (Lebedev-50)
Angular grid pruning method      GridPruning ... 4 (adaptive)
Weight generation scheme         WeightScheme... Becke
Basis function cutoff            BFCut       ... 1.0000e-11
Integration weight cutoff        WCut        ... 1.0000e-14
Angular grids for H and He will be reduced by one unit
Partially contracted basis set               ... on
Rotationally invariant grid construction     ... off

Total number of grid points                  ...     3288
Total number of batches                      ...       55
Average number of points per batch           ...       59
Average number of grid points per atom       ...      548
UseSFitting                                  ... on

GRIDX 2
-------
General Integration Accuracy     IntAcc      ... 4.020
[...]
  0 C      6.1156     6.0000    -0.1156     3.8978     3.8978    -0.0000
  1 H      0.9123     1.0000     0.0877     0.9559     0.9559    -0.0000
  2 H      0.8898     1.0000     0.1102     0.9646     0.9646    -0.0000
  3 H      0.9124     1.0000     0.0876     0.9560     0.9560    -0.0000
  4 O      8.4056     8.0000    -0.4056     1.9809     1.9809    -0.0000
  5 H      0.7644     1.0000     0.2356     0.9792     0.9792    -0.0000

  Mayer bond orders larger than 0.100000
B(  0-C ,  1-H ) :   0.9632 B(  0-C ,  2-H ) :   0.9730 B(  0-C ,  3-H ) :   0.9632 
B(  0-C ,  4-O ) :   0.9908 B(  4-O ,  5-H ) :   0.9618 

-------
TIMINGS
-------

Total SCF time: 0 days 0 hours 0 min 0 sec 

Total time                  ....       0.994 sec
Sum of individual times     ....       0.909 sec  ( 91.4%)

Fock matrix formation       ....       0.726 sec  ( 73.0%)
  Split-RI-J                ....       0.118 sec  ( 16.3% of F)
  Chain of spheres X        ....       0.430 sec  ( 59.2% of F)
  XC integration            ....       0.154 sec  ( 21.2% of F)
    Basis function eval.    ....       0.047 sec  ( 30.3% of XC)
    Density eval.           ....       0.026 sec  ( 16.9% of XC)
    XC-Functional eval.     ....       0.015 sec  (  9.7% of XC)
    XC-Potential eval.      ....       0.021 sec  ( 13.5% of XC)
Diagonalization             ....       0.002 sec  (  0.2%)
Density matrix formation    ....       0.001 sec  (  0.1%)
Population analysis         ....       0.006 sec  (  0.6%)
Initial guess               ....       0.002 sec  (  0.2%)
Orbital Transformation      ....       0.000 sec  (  0.0%)
Orbital Orthonormalization  ....       0.001 sec  (  0.1%)
DIIS solution               ....       0.001 sec  (  0.1%)
SOSCF solution              ....       0.006 sec  (  0.6%)
Grid generation             ....       0.166 sec  ( 16.7%)

Maximum memory used throughout the entire SCF-calculation: 44.6 MB

-------------------------   --------------------
FINAL SINGLE POINT ENERGY      -115.691269312007
-------------------------   --------------------

                                *** OPTIMIZATION RUN DONE ***

                            ***************************************
                            *     ORCA property calculations      *
                            ***************************************

                                    ---------------------
                                    Active property flags
                                    ---------------------
   (+) Dipole Moment


------------------------------------------------------------------------------
                       ORCA ELECTRIC PROPERTIES CALCULATION
------------------------------------------------------------------------------

Dipole Moment Calculation                       ... on
Quadrupole Moment Calculation                   ... off
Polarizability Calculation                      ... off
GBWName                                         ... ch3oh.gbw
Electron density                                ... ch3oh.scfp
The origin for moment calculation is the CENTER OF MASS  = ( 5.229057,  1.304407 -1.097036)

-------------
DIPOLE MOMENT
-------------
                                X             Y             Z
Electronic contribution:      0.79429       0.92979      -1.36170
Nuclear contribution   :     -1.16678      -1.48888       1.31308
                        -----------------------------------------
Total Dipole Moment    :     -0.37249      -0.55909      -0.04862
                        -----------------------------------------
Magnitude (a.u.)       :      0.67356
Magnitude (Debye)      :      1.71207



--------------------
Rotational spectrum 
--------------------
 
Rotational constants in cm-1:     4.269514     0.824114     0.795398 
Rotational constants in MHz : 127996.821527 24706.301769 23845.440040 

 Dipole components along the rotational axes: 
x,y,z [a.u.] :     0.341090    -0.580816    -0.000025 
x,y,z [Debye]:     0.866982    -1.476317    -0.000065 

 

----------------------------------------------------------------------------
                           ORCA NUMERICAL FREQUENCIES
                              (4-process run)
----------------------------------------------------------------------------

Number of atoms                ... 6
Central differences            ... used
Number of displacements        ... 36
Numerical increment            ... 5.000e-03 bohr
IR-spectrum generation         ... on
Raman-spectrum generation      ... off
Surface Crossing Hessian       ... off

The output will be reduced. Please look at the following files:
SCF program output             ... >ch3oh.lastscf
Integral program output        ... >ch3oh.lastint
Gradient program output        ... >ch3oh.lastgrad
Dipole moment program output   ... >ch3oh.lastmom
AutoCI program output          ... >ch3oh.lastautoci

	<< Calculating on displaced geometry   2 (of  36) >>
	<< Calculating on displaced geometry   4 (of  36) >>
	<< Calculating on displaced geometry   3 (of  36) >>
	<< Calculating on displaced geometry   1 (of  36) >>
	<< Calculating on displaced geometry   5 (of  36) >>
	<< Calculating on displaced geometry   6 (of  36) >>
	<< Calculating on displaced geometry   7 (of  36) >>
	<< Calculating on displaced geometry   8 (of  36) >>
	<< Calculating on displaced geometry  12 (of  36) >>
	<< Calculating on displaced geometry  10 (of  36) >>
	<< Calculating on displaced geometry   9 (of  36) >>
	<< Calculating on displaced geometry  11 (of  36) >>
	<< Calculating on displaced geometry  13 (of  36) >>
	<< Calculating on displaced geometry  14 (of  36) >>
	<< Calculating on displaced geometry  15 (of  36) >>
	<< Calculating on displaced geometry  16 (of  36) >>
	<< Calculating on displaced geometry  17 (of  36) >>
	<< Calculating on displaced geometry  18 (of  36) >>
	<< Calculating on displaced geometry  20 (of  36) >>
	<< Calculating on displaced geometry  19 (of  36) >>
	<< Calculating on displaced geometry  21 (of  36) >>
	<< Calculating on displaced geometry  22 (of  36) >>
	<< Calculating on displaced geometry  24 (of  36) >>
	<< Calculating on displaced geometry  23 (of  36) >>
	<< Calculating on displaced geometry  25 (of  36) >>
	<< Calculating on displaced geometry  27 (of  36) >>
	<< Calculating on displaced geometry  26 (of  36) >>
	<< Calculating on displaced geometry  28 (of  36) >>
	<< Calculating on displaced geometry  29 (of  36) >>
	<< Calculating on displaced geometry  30 (of  36) >>
	<< Calculating on displaced geometry  31 (of  36) >>
	<< Calculating on displaced geometry  32 (of  36) >>
	<< Calculating on displaced geometry  33 (of  36) >>
	<< Calculating on displaced geometry  34 (of  36) >>
	<< Calculating on displaced geometry  35 (of  36) >>
	<< Calculating on displaced geometry  36 (of  36) >>

-----------------------
VIBRATIONAL FREQUENCIES
-----------------------

Scaling factor for frequencies =  1.000000000 (already applied!)

   0:         0.00 cm**-1
   1:         0.00 cm**-1
   2:         0.00 cm**-1
   3:         0.00 cm**-1
   4:         0.00 cm**-1
   5:         0.00 cm**-1
   6:       321.67 cm**-1
   7:      1051.15 cm**-1
   8:      1084.80 cm**-1
   9:      1166.67 cm**-1
  10:      1378.84 cm**-1
  11:      1487.63 cm**-1
  12:      1491.06 cm**-1
  13:      1506.56 cm**-1
  14:      2970.68 cm**-1
  15:      3011.33 cm**-1
  16:      3099.16 cm**-1
  17:      3832.88 cm**-1


------------
NORMAL MODES
------------

These modes are the cartesian displacements weighted by the diagonal matrix
M(i,i)=1/sqrt(m[i]) where m[i] is the mass of the displaced atom
Thus, these vectors are normalized but *not* orthogonal

                  0          1          2          3          4          5    
      0       0.000000   0.000000   0.000000   0.000000   0.000000   0.000000
      1       0.000000   0.000000   0.000000   0.000000   0.000000   0.000000
      2       0.000000   0.000000   0.000000   0.000000   0.000000   0.000000
      3       0.000000   0.000000   0.000000   0.000000   0.000000   0.000000
      4       0.000000   0.000000   0.000000   0.000000   0.000000   0.000000
      5       0.000000   0.000000   0.000000   0.000000   0.000000   0.000000
      6       0.000000   0.000000   0.000000   0.000000   0.000000   0.000000
      7       0.000000   0.000000   0.000000   0.000000   0.000000   0.000000
      8       0.000000   0.000000   0.000000   0.000000   0.000000   0.000000
      9       0.000000   0.000000   0.000000   0.000000   0.000000   0.000000
     10       0.000000   0.000000   0.000000   0.000000   0.000000   0.000000
     11       0.000000   0.000000   0.000000   0.000000   0.000000   0.000000
     12       0.000000   0.000000   0.000000   0.000000   0.000000   0.000000
     13       0.000000   0.000000   0.000000   0.000000   0.000000   0.000000
     14       0.000000   0.000000   0.000000   0.000000   0.000000   0.000000
     15       0.000000   0.000000   0.000000   0.000000   0.000000   0.000000
     16       0.000000   0.000000   0.000000   0.000000   0.000000   0.000000
     17       0.000000   0.000000   0.000000   0.000000   0.000000   0.000000
                  6          7          8          9         10         11    
      0      -0.003352  -0.110473  -0.076121   0.113395  -0.040269   0.032148
      1       0.002430  -0.109644  -0.104961  -0.076432  -0.076171   0.031809
      2      -0.000719   0.295803   0.044677   0.013946  -0.092391  -0.092382
      3       0.160405  -0.095943  -0.015403  -0.440740   0.137723  -0.091989
      4       0.080575  -0.127543  -0.029028  -0.228916   0.029299   0.041862
      5       0.175788  -0.110935   0.422115   0.449396   0.248146   0.498067
      6      -0.241702  -0.297803   0.235011  -0.232024   0.152107  -0.351777
      7       0.164293  -0.350907   0.292447   0.154411   0.167707  -0.460851
      8      -0.029377   0.492560  -0.311142  -0.025653  -0.314765   0.374510
      9       0.011522  -0.065747  -0.089458   0.127505  -0.062262  -0.010106
     10      -0.197183  -0.152312   0.024028   0.440616   0.166454  -0.016350
     11      -0.154814  -0.103848   0.409737  -0.489860   0.221799   0.502821
     12       0.052869   0.129628   0.029294  -0.050348   0.041117   0.003537
     13      -0.035926   0.145941   0.035668   0.034091   0.065941   0.002510
     14       0.006629  -0.251111  -0.043729  -0.006289   0.027959  -0.015517
     15      -0.729428  -0.281606   0.311916  -0.006798  -0.400354   0.014672
     16       0.493578  -0.379132   0.397103   0.003541  -0.502450   0.016465
     17      -0.088254   0.183166  -0.358995  -0.000244   0.501956  -0.028317
                 12         13         14         15         16         17    
      0      -0.048253   0.031706  -0.029213  -0.077481  -0.029196  -0.001312
      1       0.032482   0.044616  -0.040553   0.052544  -0.054452  -0.002054
      2      -0.005128  -0.012044   0.014149  -0.009332  -0.064013  -0.000688
      3       0.092543  -0.641424  -0.252791   0.236195  -0.066861  -0.001545
      4       0.107793  -0.225052   0.633419  -0.660338   0.134868  -0.000367
      5       0.462360   0.020785  -0.067812   0.058164  -0.024218   0.002920
      6       0.597130   0.117143  -0.065254  -0.023276   0.258111   0.004840
      7      -0.401227   0.149400  -0.130018   0.015768   0.519402   0.009013
      8       0.070000  -0.131311  -0.191325  -0.002846   0.780313   0.010021
      9       0.009819   0.018297   0.683915   0.701077   0.151953  -0.000316
     10      -0.177176  -0.672391  -0.001797   0.024764  -0.013305  -0.001307
     11      -0.456655   0.100447   0.045133   0.054746   0.002128   0.003143
     12      -0.007382   0.012155  -0.001051   0.000399   0.000773  -0.014526
     13       0.004945   0.018707  -0.001141  -0.000273   0.001298  -0.030864
     14      -0.000865   0.004277   0.002562   0.000048   0.000765  -0.052438
     15      -0.007352  -0.064740  -0.001092   0.002901  -0.007582   0.243203
     16       0.005072  -0.080509  -0.000272  -0.001957  -0.012731   0.507002
     17      -0.000873   0.085706   0.004752   0.000384  -0.007610   0.824411


-----------
IR SPECTRUM
-----------

 Mode   freq       eps      Int      T**2         TX        TY        TZ
       cm**-1   L/(mol*cm) km/mol    a.u.
----------------------------------------------------------------------------
  6:    321.67   0.024567  124.15  0.023833  (-0.127131  0.086090 -0.016090)
  7:   1051.15   0.023073  116.60  0.006850  (-0.035099 -0.040102  0.063322)
  8:   1084.80   0.000506    2.56  0.000146  ( 0.005755  0.006918 -0.008045)
  9:   1166.67   0.000087    0.44  0.000023  ( 0.003845 -0.002781  0.000802)
 10:   1378.84   0.004915   24.84  0.001112  (-0.014710 -0.017126  0.024547)
 11:   1487.63   0.001165    5.89  0.000244  ( 0.007393  0.008969 -0.010451)
 12:   1491.06   0.000493    2.49  0.000103  ( 0.008296 -0.005717  0.001318)
 13:   1506.56   0.000761    3.85  0.000158  (-0.001502 -0.004078 -0.011782)
 14:   2970.68   0.012832   64.85  0.001348  (-0.019280 -0.025081  0.018632)
 15:   3011.33   0.015994   80.82  0.001657  (-0.033537  0.022719 -0.004061)
 16:   3099.16   0.006698   33.85  0.000674  (-0.008078 -0.015326 -0.019347)
 17:   3832.88   0.004184   21.14  0.000341  ( 0.001596  0.005384  0.017581)

* The epsilon (eps) is given for a Dirac delta lineshape.
** The dipole moment derivative (T) already includes vibrational overlap.

The first frequency considered to be a vibration is 6
The total number of vibrations considered is 12


--------------------------
THERMOCHEMISTRY AT 298.15K
--------------------------

Temperature         ... 298.15 K
Pressure            ... 1.00 atm
Total Mass          ... 32.04 AMU

Throughout the following assumptions are being made:
  (1) The electronic state is orbitally nondegenerate
  (2) There are no thermally accessible electronically excited states
  (3) Hindered rotations indicated by low frequency modes are not
      treated as such but are treated as vibrations and this may
      cause some error
  (4) All equations used are the standard statistical mechanics
      equations for an ideal gas
  (5) All vibrations are strictly harmonic

freq.     321.67  E(vib)   ...       0.25 
freq.    1051.15  E(vib)   ...       0.02 
freq.    1084.80  E(vib)   ...       0.02 
freq.    1166.67  E(vib)   ...       0.01 
freq.    1378.84  E(vib)   ...       0.01 
freq.    1487.63  E(vib)   ...       0.00 
freq.    1491.06  E(vib)   ...       0.00 
freq.    1506.56  E(vib)   ...       0.00 
freq.    2970.68  E(vib)   ...       0.00 
freq.    3011.33  E(vib)   ...       0.00 
freq.    3099.16  E(vib)   ...       0.00 
freq.    3832.88  E(vib)   ...       0.00 

------------
INNER ENERGY
------------

The inner energy is: U= E(el) + E(ZPE) + E(vib) + E(rot) + E(trans)
    E(el)   - is the total energy from the electronic structure calculation
              = E(kin-el) + E(nuc-el) + E(el-el) + E(nuc-nuc)
    E(ZPE)  - the the zero temperature vibrational energy from the frequency calculation
    E(vib)  - the the finite temperature correction to E(ZPE) due to population
              of excited vibrational states
    E(rot)  - is the rotational thermal energy
    E(trans)- is the translational thermal energy

Summary of contributions to the inner energy U:
Electronic energy                ...   -115.69126931 Eh
Zero point energy                ...      0.05103654 Eh      32.03 kcal/mol
Thermal vibrational correction   ...      0.00049279 Eh       0.31 kcal/mol
Thermal rotational correction    ...      0.00141627 Eh       0.89 kcal/mol
Thermal translational correction ...      0.00141627 Eh       0.89 kcal/mol
-----------------------------------------------------------------------
Total thermal energy                   -115.63690744 Eh


Summary of corrections to the electronic energy:
(perhaps to be used in another calculation)
Total thermal correction                  0.00332533 Eh       2.09 kcal/mol
Non-thermal (ZPE) correction              0.05103654 Eh      32.03 kcal/mol
-----------------------------------------------------------------------
Total correction                          0.05436187 Eh      34.11 kcal/mol


--------
ENTHALPY
--------

The enthalpy is H = U + kB*T
                kB is Boltzmann's constant
Total free energy                 ...   -115.63690744 Eh 
Thermal Enthalpy correction       ...      0.00094421 Eh       0.59 kcal/mol
-----------------------------------------------------------------------
Total Enthalpy                    ...   -115.63596324 Eh


Note: Only C1 symmetry has been detected, increase convergence thresholds 
      if your molecule has a higher symmetry. Symmetry factor of 1.0 is   
      used for the rotational entropy correction. 
 

Note: Rotational entropy computed according to Herzberg 
Infrared and Raman Spectra, Chapter V,1, Van Nostrand Reinhold, 1945 
Point Group:  C1, Symmetry Number:   1  
Rotational constants in cm-1:     4.269514     0.824114     0.795398 

Vibrational entropy computed according to the QRRHO of S. Grimme
Chem.Eur.J. 2012 18 9955


-------
ENTROPY
-------

The entropy contributions are T*S = T*(S(el)+S(vib)+S(rot)+S(trans))
     S(el)   - electronic entropy
     S(vib)  - vibrational entropy
     S(rot)  - rotational entropy
     S(trans)- translational entropy
The entropies will be listed as multiplied by the temperature to get
units of energy

Electronic entropy                ...      0.00000000 Eh      0.00 kcal/mol
Vibrational entropy               ...      0.00073691 Eh      0.46 kcal/mol
Rotational entropy                ...      0.00902496 Eh      5.66 kcal/mol
Translational entropy             ...      0.01725935 Eh     10.83 kcal/mol
-----------------------------------------------------------------------
Final entropy term                ...      0.02702122 Eh     16.96 kcal/mol

In case the symmetry of your molecule has not been determined correctly
or in case you have a reason to use a different symmetry number we print 
out the resulting rotational entropy values for sn=1,12 :
 --------------------------------------------------------
|  sn= 1 | S(rot)=       0.00902496 Eh      5.66 kcal/mol|
|  sn= 2 | S(rot)=       0.00837051 Eh      5.25 kcal/mol|
|  sn= 3 | S(rot)=       0.00798767 Eh      5.01 kcal/mol|
|  sn= 4 | S(rot)=       0.00771605 Eh      4.84 kcal/mol|
|  sn= 5 | S(rot)=       0.00750536 Eh      4.71 kcal/mol|
|  sn= 6 | S(rot)=       0.00733322 Eh      4.60 kcal/mol|
|  sn= 7 | S(rot)=       0.00718767 Eh      4.51 kcal/mol|
|  sn= 8 | S(rot)=       0.00706159 Eh      4.43 kcal/mol|
|  sn= 9 | S(rot)=       0.00695039 Eh      4.36 kcal/mol|
|  sn=10 | S(rot)=       0.00685091 Eh      4.30 kcal/mol|
|  sn=11 | S(rot)=       0.00676092 Eh      4.24 kcal/mol|
|  sn=12 | S(rot)=       0.00667876 Eh      4.19 kcal/mol|
 --------------------------------------------------------


-------------------
GIBBS FREE ENERGY
-------------------

The Gibbs free energy is G = H - T*S

Total enthalpy                    ...   -115.63596324 Eh 
Total entropy correction          ...     -0.02702122 Eh    -16.96 kcal/mol
-----------------------------------------------------------------------
Final Gibbs free energy         ...   -115.66298446 Eh

For completeness - the Gibbs free energy minus the electronic energy
G-E(el)                           ...      0.02828485 Eh     17.75 kcal/mol



Timings for individual modules:

Sum of individual times         ...       72.139 sec (=   1.202 min)
GTO integral calculation        ...        1.835 sec (=   0.031 min)   2.5 %
SCF iterations                  ...       10.767 sec (=   0.179 min)  14.9 %
SCF Gradient evaluation         ...        4.083 sec (=   0.068 min)   5.7 %
Geometry relaxation             ...        0.095 sec (=   0.002 min)   0.1 %
Numerical frequency calculation ...       55.359 sec (=   0.923 min)  76.7 %
                             ****ORCA TERMINATED NORMALLY****
TOTAL RUN TIME: 0 days 0 hours 1 minutes 11 seconds 639 msec
