
                                 *****************
                                 * O   R   C   A *
                                 *****************

                                            #,                                       
                                            ###                                      
                                            ####                                     
                                            #####                                    
                                            ######                                   
                                           ########,                                 
                                     ,,################,,,,,                         
                               ,,#################################,,                 
                          ,,##########################################,,             
                       ,#########################################, ''#####,          
                    ,#############################################,,   '####,        
                  ,##################################################,,,,####,       
                ,###########''''           ''''###############################       
              ,#####''   ,,,,##########,,,,          '''####'''          '####       
            ,##' ,,,,###########################,,,                        '##       
           ' ,,###''''                  '''############,,,                           
         ,,##''                                '''############,,,,        ,,,,,,###''
      ,#''                                            '''#######################'''  
     '                                                          ''''####''''         
             ,#######,   #######,   ,#######,      ##                                
            ,#'     '#,  ##    ##  ,#'     '#,    #''#        ,####,   ,####,        
            ##       ##  ##   ,#'  ##            #'  '#       #'       #'  '#        
            ##       ##  #######   ##           ,######,      #####,   #    #        
            '#,     ,#'  ##    ##  '#,     ,#' ,#      #,     #,   #   #,  ,#        
             '#######'   ##     ##  '#######'  #'      '#     '####' # '####'        



                #########################################################
                #                        -***-                          #
                #          Department of theory and spectroscopy        #
                #                                                       #
                #                      Frank Neese                      #
                #                                                       #
                #     Directorship, Architecture, Infrastructure        #
                #                    SHARK, DRIVERS                     #
                #        Core code/Algorithms in most modules           #
                #                                                       #
                #        Max Planck Institute fuer Kohlenforschung      #
                #                Kaiser Wilhelm Platz 1                 #
                #                 D-45470 Muelheim/Ruhr                 #
                #                      Germany                          #
                #                                                       #
                #                  All rights reserved                  #
                #                        -***-                          #
                #########################################################


                         Program Version 6.0.0  -   RELEASE  -


 With contributions from (in alphabetic order):
   Daniel Aravena         : Magnetic Suceptibility
   Michael Atanasov       : Ab Initio Ligand Field Theory (pilot matlab implementation)
   Alexander A. Auer      : GIAO ZORA, VPT2 properties, NMR spectrum
   Ute Becker             : All parallelization in ORCA, NUMFREQ, NUMCALC
   Giovanni Bistoni       : ED, misc. LED, open-shell LED, HFLD
   Martin Brehm           : Molecular dynamics
   Dmytro Bykov           : pre 5.0 version of the SCF Hessian
   Marcos Casanova-Páez   : Triplet and SCS-CIS(D). UHF-(DLPNO)-IP/EA/STEOM-CCSD. UHF-CVS-IP/STEOM-CCSD
   Vijay G. Chilkuri      : MRCI spin determinant printing, contributions to CSF-ICE
   Pauline Colinet        : FMM embedding
   Dipayan Datta          : RHF DLPNO-CCSD density
   Achintya Kumar Dutta   : EOM-CC, STEOM-CC
   Nicolas Foglia         : Exact transition moments, OPA infrastructure, MCD improvements
   Dmitry Ganyushin       : Spin-Orbit,Spin-Spin,Magnetic field MRCI
   Miquel Garcia          : C-PCM and meta-GGA Hessian, CCSD/C-PCM, Gaussian charge scheme
   Tiago L. C. Gouveia    : GS-ROHF, GS-ROCIS
   Yang Guo               : DLPNO-NEVPT2, F12-NEVPT2, CIM, IAO-localization
   Andreas Hansen         : Spin unrestricted coupled pair/coupled cluster methods
   Ingolf Harden          : AUTO-CI MPn and infrastructure 
   Benjamin Helmich-Paris : MC-RPA, TRAH-(SCF,CASSCF), AVAS, COSX integrals, SCF dyn. polar.
   Lee Huntington         : MR-EOM, pCC
   Robert Izsak           : Overlap fitted RIJCOSX, COSX-SCS-MP3, EOM
   Riya Kayal             : Wick's Theorem for AUTO-CI, AUTO-CI UHF-CCSDT
   Emily Kempfer          : AUTO-CI, RHF CISDT and CCSDT
   Christian Kollmar      : KDIIS, OOCD, Brueckner-CCSD(T), CCSD density, CASPT2, CASPT2-K, improved NEVPT2
   Axel Koslowski         : Symmetry handling
   Simone Kossmann        : Meta GGA functionals, TD-DFT gradient, OOMP2, (MP2 Hessian; deprecated post 5.0)
   Lucas Lang             : DCDCAS
   Marvin Lechner         : AUTO-CI (C++ implementation), FIC-MRCC
   Spencer Leger          : CASSCF response
   Dagmar Lenk            : GEPOL surface, SMD, ORCA-2-JSON
   Dimitrios Liakos       : Extrapolation schemes; Compound Job, initial MDCI parallelization
   Dimitrios Manganas     : Further ROCIS development; embedding schemes. LFT, Crystal Embedding
   Dimitrios Pantazis     : SARC Basis sets
   Anastasios Papadopoulos: AUTO-CI, single reference methods and gradients
   Taras Petrenko         : pre 6.0 DFT Hessian and TD-DFT gradient, (ASA, deprecated), ECA, 1-Electron XAS/XES, NRVS
   Peter Pinski           : DLPNO-MP2, DLPNO-MP2 Gradient
   Christoph Reimann      : Effective Core Potentials
   Marius Retegan         : Local ZFS, SOC
   Christoph Riplinger    : Optimizer, TS searches, QM/MM, DLPNO-CCSD(T), (RO)-DLPNO pert. Triples
   Michael Roemelt        : Original ROCIS implementation
   Masaaki Saitow         : Open-shell DLPNO-CCSD energy and density
   Barbara Sandhoefer     : DKH picture change effects
   Kantharuban Sivalingam : CASSCF convergence/infrastructure, NEVPT2 and variants, FIC-MRCI
   Bernardo de Souza      : ESD, SOC TD-DFT
   Georgi Stoychev        : AutoAux, RI-MP2 NMR, DLPNO-MP2 response, X2C
   Van Anh Tran           : RI-MP2 g-tensors
   Willem Van den Heuvel  : Paramagnetic NMR
   Zikuan Wang            : NOTCH, Electric field optimization 
   Frank Wennmohs         : Technical directorship and infrastructure
   Hang Xu                : AUTO-CI-Response properties 


 We gratefully acknowledge several colleagues who have allowed us to
 interface, adapt or use parts of their codes:
   Stefan Grimme, W. Hujo, H. Kruse, P. Pracht,  : VdW corrections, initial TS optimization,
                  C. Bannwarth, S. Ehlert,         DFT functionals, gCP, sTDA/sTD-DF
                  L. Wittmann, M. Mueller
   Ed Valeev, F. Pavosevic, A. Kumar             : LibInt (2-el integral package), F12 methods
   Garnet Chan, S. Sharma, J. Yang, R. Olivares  : DMRG
   Ulf Ekstrom                                   : XCFun DFT Library
   Mihaly Kallay                                 : mrcc  (arbitrary order and MRCC methods)
   Frank Weinhold                                : gennbo (NPA and NBO analysis)
   Simon Mueller                                 : openCOSMO-RS
   Christopher J. Cramer and Donald G. Truhlar   : smd solvation model
   Lars Goerigk                                  : TD-DFT with DH, B97 family of functionals
   V. Asgeirsson, H. Jonsson                     : NEB implementation
   FAccTs GmbH                                   : IRC, NEB, NEB-TS, DLPNO-Multilevel, CI-OPT
                                                   MM, QMMM, 2- and 3-layer-ONIOM, Crystal-QMMM,
                                                   LR-CPCM, SF, NACMEs, symmetry and pop. for TD-DFT,
                                                   nearIR, NL-DFT gradient (VV10), updates on ESD,
                                                   ML-optimized integration grids, MBIS, APM,
                                                   GOAT, DOCKER, SOLVATOR, interface openCOSMO-RS
   S Lehtola, MJT Oliveira, MAL Marques          : LibXC Library
   Liviu Ungur et al                             : ANISO software


 Your calculation uses the libint2 library for the computation of 2-el integrals
 For citations please refer to: http://libint.valeyev.net

 Your ORCA version has been built with support for libXC version: 6.2.2
 For citations please refer to: https://libxc.gitlab.io

 This ORCA versions uses:
   CBLAS   interface :  Fast vector & matrix operations
   LAPACKE interface :  Fast linear algebra routines
   SCALAPACK package :  Parallel linear algebra routines
   Shared memory     :  Shared parallel matrices
   BLAS/LAPACK       :  OpenBLAS 0.3.27  USE64BITINT DYNAMIC_ARCH NO_AFFINITY Zen SINGLE_THREADED
        Core in use  :  Zen
   Copyright (c) 2011-2014, The OpenBLAS Project


================================================================================

----- Orbital basis set information -----
Your calculation utilizes the basis: def2-SVP
   F. Weigend and R. Ahlrichs, Phys. Chem. Chem. Phys. 7, 3297 (2005).

================================================================================
                                        WARNINGS
                       Please study these warnings very carefully!
================================================================================

INFO   : Found keyword 'PrintThermoChem'
  ===> : The value for Final Gibbs free enthalpy does not include the electronic energy.
       : Use G-E(el) and the individual components of the thermochemical correction instead.

================================================================================
                                       INPUT FILE
================================================================================
NAME = T500_P80atm/thermo_T500_P80.inp
|  1> ! PrintThermoChem
|  2> 
|  3> %geom
|  4>   InHessName "T500_P80atm/hessian.hess"
|  5> end
|  6> 
|  7> %freq
|  8>   Temp 500
|  9>   Pressure 80
| 10> end
| 11> 
| 12> * xyz 0 1
| 13> C   0.000000   0.000000   0.000000
| 14> O   1.230000   0.000000   0.000000
| 15> O  -0.665000   1.151814   0.000000
| 16> O  -0.665000  -1.151814   0.000000
| 17> H  -0.022635   1.865233   0.000000
| 18> H  -0.022635  -1.865233   0.000000
| 19> *
| 20> 
| 21>                          ****END OF INPUT****
================================================================================

                       ****************************
                       * THERMOCHEMISTRY ANALYSIS *
                       ****************************


----------------------------------------------------------------------------
                           ORCA THERMOCHEMISTRY ANALYSIS
----------------------------------------------------------------------------

Retrieving Hessian from file   ... T500_P80atm/hessian.hess

Number of atoms                ... 6
IR-spectrum generation         ... on

-----------------------
VIBRATIONAL FREQUENCIES
-----------------------

Scaling factor for frequencies =  1.000000000  (already applied!)

     0:       0.00 cm**-1
     1:       0.00 cm**-1
     2:       0.00 cm**-1
     3:       0.00 cm**-1
     4:       0.00 cm**-1
     5:       0.00 cm**-1
     6:     526.12 cm**-1
     7:     550.00 cm**-1
     8:     599.92 cm**-1
     9:     605.28 cm**-1
    10:     797.66 cm**-1
    11:     979.89 cm**-1
    12:    1162.93 cm**-1
    13:    1304.46 cm**-1
    14:    1464.63 cm**-1
    15:    1849.08 cm**-1
    16:    3808.22 cm**-1
    17:    3810.30 cm**-1


------------
NORMAL MODES
------------

These modes are the Cartesian displacements weighted by the diagonal matrix
M(i,i)=1/sqrt(m[i]) where m[i] is the mass of the displaced atom
Thus, these vectors are normalized but *not* orthogonal

                  0          1          2          3          4          5    
      0       0.000000   0.000000   0.000000   0.000000   0.000000   0.000000
      1       0.000000   0.000000   0.000000   0.000000   0.000000   0.000000
      2       0.000000   0.000000   0.000000   0.000000   0.000000   0.000000
      3       0.000000   0.000000   0.000000   0.000000   0.000000   0.000000
      4       0.000000   0.000000   0.000000   0.000000   0.000000   0.000000
      5       0.000000   0.000000   0.000000   0.000000   0.000000   0.000000
      6       0.000000   0.000000   0.000000   0.000000   0.000000   0.000000
      7       0.000000   0.000000   0.000000   0.000000   0.000000   0.000000
      8       0.000000   0.000000   0.000000   0.000000   0.000000   0.000000
      9       0.000000   0.000000   0.000000   0.000000   0.000000   0.000000
     10       0.000000   0.000000   0.000000   0.000000   0.000000   0.000000
     11       0.000000   0.000000   0.000000   0.000000   0.000000   0.000000
     12       0.000000   0.000000   0.000000   0.000000   0.000000   0.000000
     13       0.000000   0.000000   0.000000   0.000000   0.000000   0.000000
     14       0.000000   0.000000   0.000000   0.000000   0.000000   0.000000
     15       0.000000   0.000000   0.000000   0.000000   0.000000   0.000000
     16       0.000000   0.000000   0.000000   0.000000   0.000000   0.000000
     17       0.000000   0.000000   0.000000   0.000000   0.000000   0.000000
                  6          7          8          9         10         11    
      0      -0.000266  -0.203790  -0.000049  -0.000622   0.000004  -0.167644
      1       0.000083   0.000513  -0.000052  -0.163847   0.000043  -0.000268
      2      -0.000496   0.000106  -0.061114   0.000045  -0.812938  -0.000018
      3      -0.000266  -0.215961  -0.000067  -0.000818  -0.000011  -0.258360
      4      -0.000174  -0.001222   0.000140   0.376058  -0.000063   0.000033
      5       0.000219   0.000014  -0.014037   0.000044   0.227611   0.000003
      6       0.000089   0.146090   0.000118   0.211677  -0.000036   0.170447
      7       0.000293   0.260848   0.000042  -0.104725   0.000037  -0.311619
      8      -0.071565   0.000352  -0.014663  -0.000101   0.211688   0.000059
      9       0.000279   0.147361  -0.000038  -0.210650   0.000043   0.170424
     10      -0.000198  -0.260181  -0.000128  -0.106535  -0.000006   0.311756
     11       0.071979  -0.000323  -0.014327   0.000187   0.210657  -0.000053
     12       0.000525   0.597115   0.000398   0.502144  -0.000025   0.343654
     13      -0.000069  -0.085084  -0.000185  -0.331787   0.000036  -0.455879
     14       0.701382  -0.004278   0.707212   0.000107  -0.319766  -0.000513
     15       0.001026   0.601264  -0.000014  -0.498066   0.000039   0.344314
     16       0.000331   0.087792  -0.000058  -0.331553  -0.000033   0.456371
     17      -0.705520   0.002336   0.703916  -0.002710  -0.309655   0.000586
                 12         13         14         15         16         17    
      0       0.000109   0.013897   0.000064  -0.696502   0.000355   0.001838
      1      -0.158143   0.001042  -0.367899  -0.000011   0.003125  -0.000535
      2       0.000006   0.000001  -0.000018  -0.000017  -0.000000   0.000001
      3      -0.000225  -0.101743  -0.000343   0.404672   0.000174   0.001015
      4      -0.010758  -0.000116   0.039958   0.000049   0.000673  -0.000118
      5      -0.000002  -0.000002   0.000003  -0.000000  -0.000000   0.000001
      6      -0.113272   0.079149   0.017648   0.079215   0.028673   0.020509
      7       0.090457   0.003522   0.090304  -0.029658   0.039944   0.029236
      8      -0.000003  -0.000010   0.000000   0.000008   0.000002  -0.000000
      9       0.113458   0.079090  -0.016962   0.079334  -0.019620   0.029335
     10       0.090346  -0.004103   0.090127   0.029706   0.027103  -0.041480
     11       0.000000   0.000006   0.000005  -0.000008  -0.000003   0.000002
     12       0.547859  -0.530394  -0.479481  -0.319372  -0.491442  -0.338508
     13      -0.406728   0.453557   0.445127   0.256082  -0.657134  -0.455633
     14       0.000024   0.000114   0.000063   0.000026  -0.000013  -0.000017
     15      -0.548544  -0.531911   0.473280  -0.320802   0.340760  -0.490610
     16      -0.407859  -0.454912   0.440617  -0.257495  -0.454966   0.658219
     17      -0.000011  -0.000043   0.000020   0.000184   0.000036  -0.000038


-----------
IR SPECTRUM
-----------

 Mode   freq       eps      Int      T**2         TX        TY        TZ
       cm**-1   L/(mol*cm) km/mol    a.u.
----------------------------------------------------------------------------
  6:    526.12   0.000000    0.00  0.000000  ( 0.000051  0.000074 -0.000265)
  7:    550.00   0.001181    5.97  0.000670  ( 0.025882  0.000149 -0.000099)
  8:    599.92   0.042917  216.89  0.022324  ( 0.000024 -0.000052  0.149413)
  9:    605.28   0.009743   49.24  0.005023  ( 0.000516 -0.070872 -0.000132)
 10:    797.66   0.012555   63.45  0.004912  ( 0.000003  0.000008 -0.070085)
 11:    979.89   0.003461   17.49  0.001102  (-0.033196 -0.000569  0.000001)
 12:   1162.93   0.094234  476.22  0.025287  ( 0.000559 -0.159018  0.000002)
 13:   1304.46   0.005128   25.91  0.001227  (-0.034998  0.001369  0.000006)
 14:   1464.63   0.023268  117.59  0.004958  (-0.000482 -0.070409  0.000002)
 15:   1849.08   0.100314  506.95  0.016930  (-0.130114  0.000130  0.000004)
 16:   3808.22   0.032127  162.36  0.002633  (-0.003275 -0.051205 -0.000000)
 17:   3810.30   0.004151   20.98  0.000340  (-0.016359  0.008506 -0.000001)

* The epsilon (eps) is given for a Dirac delta lineshape.
** The dipole moment derivative (T) already includes vibrational overlap.

Electronic Energy not available with !PrintThermoChem.
Please do not use Final Gibbs free enthalpy, but use 
G-E(el) and the individual components of the thermochemical correction.


The first frequency considered to be a vibration is 6
The total number of vibrations considered is 12


--------------------------
THERMOCHEMISTRY AT 500.00K
--------------------------

Temperature         ...   500.00 K
Pressure            ...    80.00 atm
Total Mass          ...    62.02 AMU
Quasi RRHO          ...     True
Cut-Off Frequency   ...     1.00 cm^-1

Throughout the following assumptions are being made:
  (1) The electronic state is orbitally nondegenerate
  (2) There are no thermally accessible electronically excited states
  (3) Hindered rotations indicated by low frequency modes are not
      treated as such but are treated as vibrations and this may
      cause some error
  (4) All equations used are the standard statistical mechanics
      equations for an ideal gas
  (5) All vibrations are strictly harmonic

freq.     526.12  E(vib)   ...       0.42 
freq.     550.00  E(vib)   ...       0.41 
freq.     599.92  E(vib)   ...       0.37 
freq.     605.28  E(vib)   ...       0.37 
freq.     797.66  E(vib)   ...       0.26 
freq.     979.89  E(vib)   ...       0.18 
freq.    1162.93  E(vib)   ...       0.12 
freq.    1304.46  E(vib)   ...       0.09 
freq.    1464.63  E(vib)   ...       0.06 
freq.    1849.08  E(vib)   ...       0.03 
freq.    3808.22  E(vib)   ...       0.00 
freq.    3810.30  E(vib)   ...       0.00 

------------
INNER ENERGY
------------

The inner energy is: U= E(el) + E(ZPE) + E(vib) + E(rot) + E(trans)
    E(el)   - is the total energy from the electronic structure calculation
              = E(kin-el) + E(nuc-el) + E(el-el) + E(nuc-nuc)
    E(ZPE)  - the the zero temperature vibrational energy from the frequency calculation
    E(vib)  - the the finite temperature correction to E(ZPE) due to population
              of excited vibrational states
    E(rot)  - is the rotational thermal energy
    E(trans)- is the translational thermal energy

Summary of contributions to the inner energy U:
Electronic energy                ...      0.00000000 Eh
Zero point energy                ...      0.03977337 Eh      24.96 kcal/mol
Thermal vibrational correction   ...      0.00367025 Eh       2.30 kcal/mol
Thermal rotational correction    ...      0.00237510 Eh       1.49 kcal/mol
Thermal translational correction ...      0.00237510 Eh       1.49 kcal/mol
-----------------------------------------------------------------------
Total thermal energy                      0.04819381 Eh


Summary of corrections to the electronic energy:
(perhaps to be used in another calculation)
Total thermal correction                  0.00842045 Eh       5.28 kcal/mol
Non-thermal (ZPE) correction              0.03977337 Eh      24.96 kcal/mol
-----------------------------------------------------------------------
Total correction                          0.04819381 Eh      30.24 kcal/mol


--------
ENTHALPY
--------

The enthalpy is H = U + kB*T
                kB is Boltzmann's constant
Total thermal energy              ...      0.04819381 Eh 
Thermal Enthalpy correction       ...      0.00158345 Eh       0.99 kcal/mol
-----------------------------------------------------------------------
Total Enthalpy                    ...      0.04977726 Eh


Note: Rotational entropy computed according to Herzberg 
Infrared and Raman Spectra, Chapter V,1, Van Nostrand Reinhold, 1945 
Point Group:  C2v, Symmetry Number:   2  
Rotational constants in cm-1:     0.440003     0.340801     0.192050 

Vibrational entropy computed according to the QRRHO of S. Grimme
Chem.Eur.J. 2012 18 9955 using a reference frequency of 100.0 cm-1


-------
ENTROPY
-------

The entropy contributions are T*S = T*(S(el)+S(vib)+S(rot)+S(trans))
     S(el)   - electronic entropy
     S(vib)  - vibrational entropy
     S(rot)  - rotational entropy
     S(trans)- translational entropy
The entropies will be listed as multiplied by the temperature to get
units of energy

Electronic entropy                ...      0.00000000 Eh      0.00 kcal/mol
Vibrational entropy               ...      0.00543578 Eh      3.41 kcal/mol
Rotational entropy                ...      0.01888863 Eh     11.85 kcal/mol
Translational entropy             ...      0.02562086 Eh     16.08 kcal/mol
-----------------------------------------------------------------------
Final entropy term                ...      0.04994526 Eh     31.34 kcal/mol

In case the symmetry of your molecule has not been determined correctly
or in case you have a reason to use a different symmetry number we print 
out the resulting rotational entropy values for sn=1,12:

 non-linear molecules -----------------------------------
|  sn= 1 | S(rot)=       0.01998616 Eh     12.54 kcal/mol|
|  sn= 2 | S(rot)=       0.01888863 Eh     11.85 kcal/mol|
|  sn= 3 | S(rot)=       0.01824662 Eh     11.45 kcal/mol|
|  sn= 4 | S(rot)=       0.01779110 Eh     11.16 kcal/mol|
|  sn= 5 | S(rot)=       0.01743778 Eh     10.94 kcal/mol|
|  sn= 6 | S(rot)=       0.01714909 Eh     10.76 kcal/mol|
|  sn= 7 | S(rot)=       0.01690501 Eh     10.61 kcal/mol|
|  sn= 8 | S(rot)=       0.01669357 Eh     10.48 kcal/mol|
|  sn= 9 | S(rot)=       0.01650708 Eh     10.36 kcal/mol|
|  sn=10 | S(rot)=       0.01634025 Eh     10.25 kcal/mol|
|  sn=11 | S(rot)=       0.01618933 Eh     10.16 kcal/mol|
|  sn=12 | S(rot)=       0.01605156 Eh     10.07 kcal/mol|
 linear molecules ---------------------------------------
|  Dinfh | S(rot)=       0.01236266 Eh      7.76 kcal/mol|
|  Cinfv | S(rot)=       0.01346019 Eh      8.45 kcal/mol|
 --------------------------------------------------------


-------------------
GIBBS FREE ENERGY
-------------------

The Gibbs free energy is G = H - T*S

Total enthalpy                    ...      0.04977726 Eh 
Total entropy correction          ...     -0.04994526 Eh    -31.34 kcal/mol
-----------------------------------------------------------------------
Final Gibbs free energy         ...     -0.00016801 Eh

For completeness - the Gibbs free energy minus the electronic energy
G-E(el)                           ...     -0.00016801 Eh     -0.11 kcal/mol


--------------------------------
SUGGESTED CITATIONS FOR THIS RUN
--------------------------------

Below you find a list of papers that are relevant to this ORCA run
We neither can nor want to force you to cite these papers, but we appreciate if you do
You receive ORCA, which is the product of decades of hard work by many enthusiastic individuals, for free
The only thing we kindly ask in return is that you cite our papers,
We deeply appreciate it, if you show your appreciation for ORCA by not just citing the generic ORCA reference.

Please note that relegating all ORCA citations to the supporting information does *not* help us.
SI sections are not indexed - citations you put there will not count into any citation statistics
But we need these citations in order to attract the funding resources that allow us to do what we are doing

Therefore, if you are a happy ORCA user, please consider citing a few of the papers listed below in the main body of your paper

In addition to the list printed below, the program has created the file T500_P80atm/thermo_T500_P80.bibtex that contains the list in bibtex format
You can import this file easily into all common literature databanks and citation aid programs


List of essential papers. We consider these as the minimum necessary citations

  1. Neese,F.
     Software update: the ORCA program system, version 5.0
     WIRES Comput. Molec. Sci., 2022 12(1)e1606
     doi.org/10.1002/wcms.1606

List of papers to cite with high priority. The work reported in these papers was absolutely
necessary for this run to complete.
Our perspective: the developers of density functionals and basis sets usually get cited in chemistry papers
Good! But without the algorithms to do something with them, the functionals or basis sets would not do anything.
Hence, in our opinion, the algorithm design and method developments papers are equally worthy of getting cited

  1. Neese,F.
     The SHARK Integral Generation and Digestion System
     J. Comp. Chem., 2022  1-16
     doi.org/10.1002/jcc.26942

List of suggested additional citations. These are papers that are important in the 'surrounding' of 
of this run, or papers that preceded the highly important papers. If you like your results we are grateful for a citation.

  1. Neese,F.
     The ORCA program system
     WIRES Comput. Molec. Sci., 2012 2(1)73-78
     doi.org/10.1002/wcms.81
  2. Neese,F.
     Software update: the ORCA program system, version 4.0
     WIRES Comput. Molec. Sci., 2018 8(1)1-6
     doi.org/10.1002/wcms.1327
  3. Neese,F.; Wennmohs,F.; Becker,U.; Riplinger,C.
     The ORCA quantum chemistry program package
     J. Chem. Phys., 2020 152 Art. No. L224108
     doi.org/10.1063/5.0004608

List of optional additional citations

  1. Neese,F.
     Approximate second-order SCF convergence for spin unrestricted wavefunctions
     Chem. Phys. Lett., 2000 325(1-3)93-98
     doi.org/10.1016/s0009-2614(00)00662-x

Timings for individual modules:

                             ****ORCA TERMINATED NORMALLY****
TOTAL RUN TIME: 0 days 0 hours 0 minutes 0 seconds 40 msec
