
                                 *****************
                                 * O   R   C   A *
                                 *****************

                                            #,                                       
                                            ###                                      
                                            ####                                     
                                            #####                                    
                                            ######                                   
                                           ########,                                 
                                     ,,################,,,,,                         
                               ,,#################################,,                 
                          ,,##########################################,,             
                       ,#########################################, ''#####,          
                    ,#############################################,,   '####,        
                  ,##################################################,,,,####,       
                ,###########''''           ''''###############################       
              ,#####''   ,,,,##########,,,,          '''####'''          '####       
            ,##' ,,,,###########################,,,                        '##       
           ' ,,###''''                  '''############,,,                           
         ,,##''                                '''############,,,,        ,,,,,,###''
      ,#''                                            '''#######################'''  
     '                                                          ''''####''''         
             ,#######,   #######,   ,#######,      ##                                
            ,#'     '#,  ##    ##  ,#'     '#,    #''#        ,####,    ,#,          
            ##       ##  ##   ,#'  ##            #'  '#       #'       ,# #          
            ##       ##  #######   ##           ,######,      #####,      #          
            '#,     ,#'  ##    ##  '#,     ,#' ,#      #,     #,   #      #          
             '#######'   ##     ##  '#######'  #'      '#     '####' #    #          



                #########################################################
                #                        -***-                          #
                #          Department of theory and spectroscopy        #
                #                                                       #
                #                      Frank Neese                      #
                #                                                       #
                #     Directorship, Architecture, Infrastructure        #
                #                    SHARK, DRIVERS                     #
                #        Core code/Algorithms in most modules           #
                #                                                       #
                #        Max Planck Institute fuer Kohlenforschung      #
                #                Kaiser Wilhelm Platz 1                 #
                #                 D-45470 Muelheim/Ruhr                 #
                #                      Germany                          #
                #                                                       #
                #                  All rights reserved                  #
                #                        -***-                          #
                #########################################################


                         Program Version 6.1.0  -  RELEASE   -
                                (GIT: $679e74b$)
                          ($2025-06-10 18:02:51 +0200$)


 With contributions from (in alphabetic order):
[Max-Planck-Institut fuer Kohlenforschung]                               
  Daniel Aravena         : Magnetic Suceptibility                        
  Michael Atanasov       : Ab Initio Ligand Field Theory (pilot matlab implementation)
  Alexander A. Auer      : GIAO ZORA, VPT2 properties, NMR spectrum      
  Ute Becker             : All parallelization in ORCA, NUMFREQ, NUMCALC 
  Giovanni Bistoni       : ED, misc. LED, open-shell LED, HFLD           
  Dmytro Bykov           : pre 5.0 version of the SCF Hessian            
  Marcos Casanova-Páez   : Triplet and SCS-CIS(D). UHF-(DLPNO)-IP/EA/STEOM-CCSD. UHF-CVS-IP/STEOM-CCSD   
  Vijay G. Chilkuri      : MRCI spin determinant printing, contributions to CSF-ICE 
  Pauline Colinet        : FMM embedding                                 
  Dipayan Datta          : RHF DLPNO-CCSD density                        
  Achintya Kumar Dutta   : EOM-CC, STEOM-CC                              
  Nicolas Foglia         : Exact transition moments, OPA infrastructure, MCD improvements    
  Dmitry Ganyushin       : Spin-Orbit,Spin-Spin,Magnetic field MRCI      
  Miquel Garcia-Rates    : C-PCM and meta-GGA Hessian, CCSD/C-PCM, Gaussian charge scheme 
  Tiago L. C. Gouveia    : GS-ROHF, GS-ROCIS                             
  Yang Guo               : DLPNO-NEVPT2, F12-NEVPT2, CIM, IAO-localization        
  Andreas Hansen         : Spin unrestricted coupled pair/coupled cluster methods 
  Ingolf Harden          : AUTO-CI MPn and infrastructure                
  Benjamin Helmich-Paris : MC-RPA, TRAH-(SCF,CASSCF), AVAS, COSX integrals, SCF dyn. polar., MC-PDFT, srDFT 
  Lee Huntington         : MR-EOM, pCC                                   
  Robert Izsak           : Overlap fitted RIJCOSX, COSX-SCS-MP3, EOM     
  Riya Kayal             : Wick's Theorem for AUTO-CI, AUTO-CI UHF-CCSDT 
  Emily Kempfer          : AUTO-CI RHF CISDT and CCSDT, approximate NEVPT4
  Christian Kollmar      : KDIIS, OOCD, Brueckner-CCSD(T), CCSD density, CASPT2, CASPT2-K, improved NEVPT2 
  Axel Koslowski         : Symmetry handling                             
  Simone Kossmann        : meta-GGA functionals, TD-DFT gradient, OOMP2, (MP2 Hessian; deprecated post 5.0) 
  Lucas Lang             : DCDCAS, Hyperfine gauge corrections, ICE-SOC+SSC
  Marvin Lechner         : AUTO-CI (C++ implementation), FIC-MRCC        
  Spencer Leger          : CASSCF response                               
  Dagmar Lenk            : GEPOL surface, SMD, ORCA-2-JSON               
  Dimitrios Liakos       : Extrapolation schemes; Compound Job, Property file
  Dimitrios Manganas     : Further ROCIS development; embedding schemes. LFT, Crystal Embedding 
  Dimitrios Pantazis     : SARC Basis sets                               
  Anastasios Papadopoulos: AUTO-CI, single reference methods and gradients 
  Taras Petrenko         : pre 6.0 DFT Hessian and TD-DFT gradient,  ECA, NRVS 
  Petra Pikulova         : Analytic Raman intensities                    
  Peter Pinski           : DLPNO-MP2, DLPNO-MP2 Gradient                 
  Shashank Vittal Rao    : ES-AILFT, MagRelax                            
  Christoph Reimann      : Effective Core Potentials                     
  Marius Retegan         : Local ZFS, SOC                                
  Christoph Riplinger    : Optimizer, TS searches, QM/MM, DLPNO-CCSD(T), (RO)-DLPNO pert. Triples 
  Michael Roemelt        : Original ROCIS implementation, recursive CI coupling coefficients
  Masaaki Saitow         : Open-shell DLPNO-CCSD energy and density      
  Barbara Sandhoefer     : DKH picture change effects                    
  Yorick L. A. Schmerwitz: GMF and freeze-and-release deltaSCF, NEB S-IDPP initial path                    
  Kantharuban Sivalingam : CASSCF convergence/infrastructure, NEVPT2, NEVPT3, NEVPT4(SD), FIC-MRCI and CEPA variants
  Bernardo de Souza      : ESD, SOC TD-DFT                               
  Georgi L. Stoychev     : AutoAux, RI-MP2 NMR, DLPNO-MP2 response, X2C  
  Van Anh Tran           : RI-MP2 g-tensors                              
  Willem Van den Heuvel  : Paramagnetic NMR                              
  Zikuan Wang            : NOTCH, Electric field optimization            
  Frank Wennmohs         : Technical directorship and infrastructure     
  Hang Xu                : AUTO-CI-Response properties                   
                                                                         
[FACCTs GmbH]                                                            
  Markus Bursch, Nicolas Foglia, Miquel Garcia-Rates, Ingolf Harden, Hagen Neugebauer, Anastasios Papadopoulos, 
  Christoph Riplinger, Bernardo de Souza, Georgi L. Stoychev                                                    
                                                                 
  APM, various basis sets, CI-OPT, improved COSX, DLPNO-Multilevel,           
  DOCKER, DRACO, updates on ESD, Fragmentator, GOAT, IRC, LR-CPCM, L-BFGS, MBIS, meta-GGA TD-DFT gradient, ML-optimized integration grids, 
  MM, NACMEs, nearIR, NEB, NEB-TS, NL-DFT gradient (VV10), 2- and 3-layer-ONIOM, interface openCOSMO-RS, QMMM,   
  Crystal-QMMM, RESP, rigid body optimization, SF, symmetry and pop. for TD-DFT, various functionals, SOLVATOR                                   
                                                                         
[Other institutions]                                                     
  V. Asgeirsson          : NEB                                           
  Christoph Bannwarth    : sTDA-DFT, sTD-DFT, PBEh-3c, B97-3c, D3        
  Giovanni Bistoni       : ETS/NOCV, ADLD/ADEX, COVALED                  
  Martin Brehm           : Molecular dynamics                            
  Ronald Cardenas        : ETS/NOCV                                      
  Martina Colucci        : COVALED                                       
  Sebastian Ehlert       : rSCAN, r2SCAN, r2SCAN-3c, D4, dhf basis sets  
  Marvin Friede          : D4 for Fr, Ra, Ac-Lr                          
  Lars Goerigk           : TD-DFT with DH, B97 family of functionals     
  Stefan Grimme          : VdW corrections, initial TS optimization, DFT functionals, gCP, sTDA/sTD-DF 
  Waldemar Hujo          : DFT-NL                                        
  H. Jonsson             : NEB                                           
  Holger Kruse           : gCP                                           
  Marcel Mueller         : wB97X-3c, vDZP basis set                      
  Hagen Neugebauer       : wr2SCAN, Native XTB                           
  Gianluca Regni         : ADLD/ADEX                                     
  Tobias Risthaus        : pre 6.0 range-separated hybrid DFT and stability analysis
  Lukas Wittmann         : regularized MP2, r2SCAN double-hybrids, wr2SCAN        
                                                                         
We gratefully acknowledge several colleagues who have allowed us to      
interface, adapt or use parts of their codes:                            
  Ed Valeev, F. Pavosevic, A. Kumar             : LibInt (2-el integral package), F12 methods 
  Garnet Chan, S. Sharma, J. Yang, R. Olivares  : DMRG                   
  Ulf Ekstrom                                   : XCFun DFT Library      
  Mihaly Kallay                                 : mrcc  (arbitrary order and MRCC methods)
  Frank Weinhold                                : gennbo (NPA and NBO analysis)           
  Simon Mueller                                 : openCOSMO-RS                            
  Christopher J. Cramer and Donald G. Truhlar   : smd solvation model                     
  S Lehtola, MJT Oliveira, MAL Marques          : LibXC Library                           
  Liviu Ungur et al                             : ANISO software                          


 Your calculation uses the libint2 library for the computation of 2-el integrals
 For citations please refer to: http://libint.valeyev.net

 Your ORCA version has been built with support for libXC version: 7.0.0
 For citations please refer to: https://libxc.gitlab.io

 This ORCA versions uses:
   CBLAS   interface :  Fast vector & matrix operations
   LAPACKE interface :  Fast linear algebra routines
   SCALAPACK package :  Parallel linear algebra routines
   Shared memory     :  Shared parallel matrices
   BLAS/LAPACK       :  OpenBLAS 0.3.29  USE64BITINT DYNAMIC_ARCH NO_AFFINITY Haswell SINGLE_THREADED
        Core in use  :  Haswell
   Copyright (c) 2011-2014, The OpenBLAS Project


  ***********************************
  * Starting time: Wed Aug  6 08:40:25 2025
  * Host name:     sv1-c724
  * Process ID:    3621898
  * Working dir.:  /home/lme/practical_course/practical_course_bachelor/CO2/mp2_6_311_g_dp
  ***********************************

================================================================================

----- Orbital basis set information -----
Your calculation utilizes the basis: 6-311G(d,p)
   H, Li - Ne  : R. Krishnan, J. S. Binkley, R. Seeger and J. A. Pople, J. Chem. Phys. 72, 650 (1980).
   Na - Ar     : A. D. McLean and G. S. Chandler J. Chem. Phys. 72, 5639, (1980).
   K  - Ca     : J.-P. Blaudeau, M. P. McGrath, L. A. Curtiss and L. Radom, J. Chem. Phys. 107, 5016 (1997).
   Ga - Kr     : L. A. Curtiss, M. P. McGrath, J.-P. Blandeau, N. E. Davis, R. C. Binning and L. Radom, J. Chem. Phys. 103, 6104 (1995).
   Pol./Diff.
   H, Li - Cl  : T. Clark, J. Chandrasekhar and P. v. R. Schleyer, J. Comp. Chem. 4, 294 (1983).
   H - Ne      : M. J. Frisch, J. A. Pople and J. S. Binkley, J. Chem. Phys. 80, 3265 (1984).

================================================================================
                                        WARNINGS
                       Please study these warnings very carefully!
================================================================================


WARNING: Analytical and numerical frequencies both set to true
  ===> : Disabling Anfreq

WARNING: The frozen-core approximation for MP2-gradient calculations is turned on by default.

WARNING: Geometry Optimization
  ===> : Switching off AutoStart
         For restart on a previous wavefunction, please use MOREAD

WARNING: Post HF methods need fully converged wavefunctions
  ===> : Setting SCFConvForced true
         You can overwrite this default with %scf ConvForced false 


================================================================================
                                       INPUT FILE
================================================================================
NAME = co2.inp
|  1> ! MP2 6-311G(d,p) OPT FREQ NUMFREQ
|  2> * xyz 0 1
|  3> C 0.000000 0.000000 0.000000
|  4> O 0.000000 0.000000 1.155028
|  5> O 0.000000 0.000000 -1.155028
|  6> *
|  7> 
|  8>                          ****END OF INPUT****
================================================================================

                       *****************************
                       * Geometry Optimization Run *
                       *****************************

Geometry optimization settings:
Update method            Update   .... BFGS
Choice of coordinates    CoordSys .... (2022) Redundant Internals
Initial Hessian          InHess   .... Almloef's Model
Max. no of cycles        MaxIter  .... 50

Convergence Tolerances:
Energy Change            TolE     ....  5.0000e-06 Eh
Max. Gradient            TolMAXG  ....  3.0000e-04 Eh/bohr
RMS Gradient             TolRMSG  ....  1.0000e-04 Eh/bohr
Max. Displacement        TolMAXD  ....  4.0000e-03 bohr
RMS Displacement         TolRMSD  ....  2.0000e-03 bohr
Strict Convergence                .... False

------------------------------------------------------------------------------
                        ORCA OPTIMIZATION COORDINATE SETUP
------------------------------------------------------------------------------

The optimization will be done in redundant internal coordinates (2022)
Making redundant internal coordinates   ...  (2022 redundants) done
Evaluating the initial hessian          ...  (Almloef) done
Evaluating the coordinates              ...  done
Calculating the B-matrix                .... done
Calculating the G-matrix                .... done
The number of degrees of freedom        ....    4

    -----------------------------------------------------------------
                    Redundant Internal Coordinates


    -----------------------------------------------------------------
         Definition                    Initial Value    Approx d2E/dq
    -----------------------------------------------------------------
      1. B(O   1,C   0)                  1.1550         1.326656   
      2. B(O   2,C   0)                  1.1550         1.326656   
      3. L(O   1,C   0,O   2, 2)       180.0000         0.567932   
      4. L(O   1,C   0,O   2, 1)       180.0000         0.567932   
    -----------------------------------------------------------------

Number of atoms                         .... 3
Number of degrees of freedom            .... 4


         *************************************************************
         *                GEOMETRY OPTIMIZATION CYCLE   1            *
         *************************************************************
---------------------------------
CARTESIAN COORDINATES (ANGSTROEM)
---------------------------------
  C      0.000000    0.000000    0.000000
  O      0.000000    0.000000    1.155028
  O      0.000000    0.000000   -1.155028

----------------------------
CARTESIAN COORDINATES (A.U.)
----------------------------
  NO LB      ZA    FRAG     MASS         X           Y           Z
   0 C     6.0000    0    12.011    0.000000    0.000000    0.000000
   1 O     8.0000    0    15.999    0.000000    0.000000    2.182687
   2 O     8.0000    0    15.999    0.000000    0.000000   -2.182687

--------------------------------
INTERNAL COORDINATES (ANGSTROEM)
--------------------------------
 C      0   0   0     0.000000000000     0.00000000     0.00000000
 O      1   0   0     1.155028000000     0.00000000     0.00000000
 O      1   2   0     1.155028000000   180.00000000     0.00000000

---------------------------
INTERNAL COORDINATES (A.U.)
---------------------------
 C      0   0   0     0.000000000000     0.00000000     0.00000000
 O      1   0   0     2.182686597011     0.00000000     0.00000000
 O      1   2   0     2.182686597011   180.00000000     0.00000000

---------------------
BASIS SET INFORMATION
---------------------
There are 2 groups of distinct atoms

 Group   1 Type C   : 11s5p1d contracted to 4s3p1d pattern {6311/311/1}
 Group   2 Type O   : 11s5p1d contracted to 4s3p1d pattern {6311/311/1}

Atom   0C    basis set group =>   1
Atom   1O    basis set group =>   2
Atom   2O    basis set group =>   2
------------------------------------------------------------------------------
                             ORCA STARTUP CALCULATIONS
------------------------------------------------------------------------------
------------------------------------------------------------------------------
                   ___                                                        
                  /   \      - P O W E R E D   B Y -                         
                 /     \                                                     
                 |  |  |   _    _      __       _____    __    __             
                 |  |  |  | |  | |    /  \     |  _  \  |  |  /  |          
                  \  \/   | |  | |   /    \    | | | |  |  | /  /          
                 / \  \   | |__| |  /  /\  \   | |_| |  |  |/  /          
                |  |  |   |  __  | /  /__\  \  |    /   |      \           
                |  |  |   | |  | | |   __   |  |    \   |  |\   \          
                \     /   | |  | | |  |  |  |  | |\  \  |  | \   \       
                 \___/    |_|  |_| |__|  |__|  |_| \__\ |__|  \__/        
                                                                              
                      - O R C A' S   B I G   F R I E N D -                    
                                      &                                       
                       - I N T E G R A L  F E E D E R -                       
                                                                              
 v1 FN, 2020, v2 2021, v3 2022-2024                                           
------------------------------------------------------------------------------


----------------------
SHARK INTEGRAL PACKAGE
----------------------

Number of atoms                             ...      3
Number of basis functions                   ...     54
Number of shells                            ...     24
Maximum angular momentum                    ...      2
Integral batch strategy                     ... SHARK/LIBINT Hybrid
RI-J (if used) integral strategy            ... SPLIT-RIJ (Revised 2003 algorithm where possible)
Printlevel                                  ...      1
Contraction scheme used                     ... SEGMENTED contraction
Prescreening option                         ... SCHWARTZ
   Thresh                                   ... 2.500e-11
   Tcut                                     ... 2.500e-12
   Tpresel                                  ... 2.500e-12 
Coulomb Range Separation                    ... NOT USED
Exchange Range Separation                   ... NOT USED
Multipole approximations                    ... NOT USED
Finite Nucleus Model                        ... NOT USED
CABS basis                                  ... NOT available
Auxiliary Coulomb fitting basis             ... NOT available
Auxiliary J/K fitting basis                 ... NOT available
Auxiliary Correlation fitting basis         ... NOT available
Auxiliary 'external' fitting basis          ... NOT available

Checking pre-screening integrals            ... done (  0.0 sec) Dimension = 24
   => SHARK Basis and OBASIS are compatible. Storing Pre-screening
Shell pair information
Shell pair cut-off parameter TPreSel        ...   2.5e-12
Total number of shell pairs                 ...       300
Shell pairs after pre-screening             ...       292
Total number of primitive shell pairs       ...      1389
Primitive shell pairs kept                  ...      1126
          la=0 lb=0:     74 shell pairs
          la=1 lb=0:    104 shell pairs
          la=1 lb=1:     45 shell pairs
          la=2 lb=0:     36 shell pairs
          la=2 lb=1:     27 shell pairs
          la=2 lb=2:      6 shell pairs

Checking whether 4 symmetric matrices of dimension 54 fit in memory
:Max Core in MB      =   4096.00
 MB in use           =      1.59
 MB left             =   4094.41
 MB needed           =      0.05
 Data fit in memory  = YES
Calculating Nuclear repulsion               ... done (  0.0 sec) ENN=     58.643325237483 Eh

Diagonalization of the overlap matrix:
Smallest eigenvalue                        ... 8.081e-03
Time for diagonalization                   ...    0.000 sec
Threshold for overlap eigenvalues          ... 1.000e-07
Number of eigenvalues below threshold      ... 0
Time for construction of square roots      ...    0.000 sec
Total time needed                          ...    0.001 sec

-------------------
DFT GRID GENERATION
-------------------

General Integration Accuracy     IntAcc      ... 4.388
Radial Grid Type                 RadialGrid  ... OptM3 with GC (2021)
Angular Grid (max. ang.)         AngularGrid ... 4 (Lebedev-302)
Angular grid pruning method      GridPruning ... 4 (adaptive)
Weight generation scheme         WeightScheme... mBecke (2022)
Basis function cutoff            BFCut       ... 1.0000e-11
Integration weight cutoff        WCut        ... 1.0000e-14
Partially contracted basis set               ... off
Rotationally invariant grid construction     ... off
Angular grids for H and He will be reduced by one unit

Total number of grid points                  ...    18352
Total number of batches                      ...      288
Average number of points per batch           ...       63
Average number of grid points per atom       ...     6117
Grids setup in   0.1 sec
Initializing property integral containers    ... done (  0.0 sec)

SHARK setup successfully completed in   0.1 seconds

Maximum memory used throughout the entire STARTUP-calculation: 7.7 MB
-------------------------------------------------------------------------------
                                 ORCA GUESS
                   Start orbitals & Density for SCF / CASSCF
-------------------------------------------------------------------------------

------------
SCF SETTINGS
------------
Hamiltonian:
 Ab initio Hamiltonian  Method          .... Hartree-Fock(GTOs)


General Settings:
 Integral files         IntName         .... co2
 Hartree-Fock type      HFTyp           .... RHF
 Total Charge           Charge          ....    0
 Multiplicity           Mult            ....    1
 Number of Electrons    NEL             ....   22
 Basis Dimension        Dim             ....   54
 Nuclear Repulsion      ENuc            ....     58.6433252375 Eh

Convergence Acceleration:
 AO-DIIS                CNVDIIS         .... on
   Start iteration      DIISMaxIt       ....    12
   Startup error        DIISStart       ....  0.200000
   # of expansion vecs  DIISMaxEq       ....     5
   Bias factor          DIISBfac        ....   1.050
   Max. coefficient     DIISMaxC        ....  10.000
 MO-DIIS                CNVKDIIS        .... off
 Trust-Rad. Augm. Hess. CNVTRAH         .... auto
   Auto Start mean grad. ratio tolernc. ....  1.125000
   Auto Start start iteration           ....    50
   Auto Start num. interpolation iter.  ....    10
   Max. Number of Micro iterations      ....    24
   Max. Number of Macro iterations      .... Maxiter - #DIIS iter
   Number of Davidson start vectors     ....     2
   Converg. threshold    (grad. norm)   ....   1.000e-05
   Grad. Scal. Fac. for Micro threshold ....   0.100
   Minimum threshold for Micro iter.    ....   1.000e-02
   NR start threshold (gradient norm)   ....   1.000e-04
   Initial trust radius                 ....   0.400
   Minimum AH scaling param. (alpha)    ....   1.000
   Maximum AH scaling param. (alpha)    .... 1000.000
   Quad. conv. algorithm                .... NR
   White noise on init. David. guess    .... on
   Maximum white noise                  ....   0.010
   Pseudo random numbers                .... off
   Inactive MOs                         .... canonical
   Orbital update algorithm             .... Taylor
   Preconditioner                       .... Diag
   Full preconditioner red. dimension   ....   250
 SOSCF                 CNVSOSCF           .... on
   Start iteration     SOSCFMaxIt         ....   150
   Startup grad/error  SOSCFStart         ....  0.003300
   Hessian update      SOSCFHessUp        .... L-BFGS
   Autom. constraints  SOSCFAutoConstrain .... off
 Level Shifting         CNVShift        .... on
   Level shift para.    LevelShift      ....    0.2500
   Turn off err/grad.   ShiftErr        ....    0.0010
 Zerner damping         CNVZerner       .... off
 Static damping         CNVDamp         .... on
   Fraction old density DampFac         ....    0.7000
   Max. Damping (<1)    DampMax         ....    0.9800
   Min. Damping (>=0)   DampMin         ....    0.0000
   Turn off err/grad.   DampErr         ....    0.1000

SCF Procedure:
 Maximum # iterations   MaxIter         ....   125
 SCF integral mode      SCFMode         .... Direct
   Integral package                     .... SHARK and LIBINT hybrid scheme
 Reset frequency        DirectResetFreq ....    20
 Integral Threshold     Thresh          ....  2.500e-11 Eh
 Primitive CutOff       TCut            ....  2.500e-12 Eh

Convergence Tolerance:
 Convergence Check Mode ConvCheckMode   .... Total+1el-Energy
 Convergence forced     ConvForced      .... 1
 Energy Change          TolE            ....  1.000e-08 Eh
 1-El. energy change                    ....  1.000e-05 Eh
 Orbital Gradient       TolG            ....  1.000e-05
 Orbital Rotation angle TolX            ....  1.000e-05
 DIIS Error             TolErr          ....  5.000e-07

------------------------------
INITIAL GUESS: MODEL POTENTIAL
------------------------------
Loading Hartree-Fock densities                     ... done
Calculating cut-offs                               ... done
Initializing the effective Hamiltonian             ... done
Setting up the integral package (SHARK)            ... done
Starting the Coulomb interaction                   ... done (   0.0 sec)
Making the grid                                    ... done (   0.0 sec)
Mapping shells                                     ... done
Starting the XC term evaluation                    ... done (   0.0 sec)
Transforming the Hamiltonian                       ... done (   0.0 sec)
Diagonalizing the Hamiltonian                      ... done (   0.0 sec)
Back transforming the eigenvectors                 ... done (   0.0 sec)
Now organizing SCF variables                       ... done
                      ------------------
                      INITIAL GUESS DONE (   0.0 sec)
                      ------------------
             **** ENERGY FILE WAS UPDATED (co2.en.tmp) ****
Finished Guess after   0.0 sec
Maximum memory used throughout the entire GUESS-calculation: 4.1 MB

-------------------------------------------------------------------------------------------
                                      ORCA LEAN-SCF
                              memory conserving SCF solver
-------------------------------------------------------------------------------------------

----------------------------------------D-I-I-S--------------------------------------------
Iteration    Energy (Eh)           Delta-E    RMSDP     MaxDP     DIISErr   Damp  Time(sec)
-------------------------------------------------------------------------------------------
               ***  Starting incremental Fock matrix formation  ***
    1    -187.5699525663532654     0.00e+00  3.05e-03  3.60e-02  2.91e-01  0.700   0.1
    2    -187.6133934663736227    -4.34e-02  1.94e-03  2.04e-02  1.76e-01  0.700   0.1
                               ***Turning on AO-DIIS***
    3    -187.6370511785883650    -2.37e-02  7.67e-04  6.96e-03  9.96e-02  0.700   0.1
    4    -187.6519168009468217    -1.49e-02  1.85e-03  1.73e-02  6.91e-02  0.000   0.1
    5    -187.6855547044377204    -3.36e-02  4.14e-04  9.39e-03  8.28e-03  0.000   0.1
                              *** Initializing SOSCF ***
---------------------------------------S-O-S-C-F--------------------------------------
Iteration    Energy (Eh)           Delta-E    RMSDP     MaxDP     MaxGrad    Time(sec)
--------------------------------------------------------------------------------------
    6    -187.6856973544060736    -1.43e-04  1.30e-04  1.85e-03  1.70e-03     0.1
               *** Restarting incremental Fock matrix formation ***
    7    -187.6857121299111668    -1.48e-05  7.11e-05  1.22e-03  5.58e-04     0.1
    8    -187.6857148311315484    -2.70e-06  4.32e-05  6.17e-04  1.55e-04     0.0
    9    -187.6857153432965220    -5.12e-07  6.96e-06  7.60e-05  8.40e-05     0.1
   10    -187.6857153915891843    -4.83e-08  2.63e-06  4.55e-05  2.42e-05     0.0
   11    -187.6857153951030455    -3.51e-09  2.73e-07  2.29e-06  3.15e-06     0.0
                 **** Energy Check signals convergence ****

               *****************************************************
               *                     SUCCESS                       *
               *           SCF CONVERGED AFTER  11 CYCLES          *
               *****************************************************

             **** ENERGY FILE WAS UPDATED (co2.en.tmp) ****

----------------
TOTAL SCF ENERGY
----------------

Total Energy       :       -187.68571539517518 Eh           -5107.18796 eV

Components:
Nuclear Repulsion  :         58.64332523748343 Eh            1595.76601 eV
Electronic Energy  :       -246.32904063265860 Eh           -6702.95397 eV
One Electron Energy:       -373.03155682502427 Eh          -10150.70471 eV
Two Electron Energy:        126.70251619236566 Eh            3447.75075 eV

Virial components:
Potential Energy   :       -375.20950030526637 Eh          -10209.96957 eV
Kinetic Energy     :        187.52378491009117 Eh            5102.78161 eV
Virial Ratio       :          2.00086351971384

---------------
SCF CONVERGENCE
---------------

  Last Energy change         ...    3.5139e-09  Tolerance :   1.0000e-08
  Last MAX-Density change    ...    2.2853e-06  Tolerance :   1.0000e-07
  Last RMS-Density change    ...    2.7277e-07  Tolerance :   5.0000e-09
  Last DIIS Error            ...    1.6997e-03  Tolerance :   5.0000e-07
  Last Orbital Gradient      ...    3.1542e-06  Tolerance :   1.0000e-05
  Last Orbital Rotation      ...    2.0121e-06  Tolerance :   1.0000e-05


----------------
ORBITAL ENERGIES
----------------

  NO   OCC          E(Eh)            E(eV) 
   0   2.0000     -20.645403      -561.7900 
   1   2.0000     -20.645356      -561.7887 
   2   2.0000     -11.457480      -311.7739 
   3   2.0000      -1.533929       -41.7403 
   4   2.0000      -1.480989       -40.2998 
   5   2.0000      -0.796321       -21.6690 
   6   2.0000      -0.741264       -20.1708 
   7   2.0000      -0.715004       -19.4563 
   8   2.0000      -0.715004       -19.4563 
   9   2.0000      -0.541256       -14.7283 
  10   2.0000      -0.541256       -14.7283 
  11   0.0000       0.214653         5.8410 
  12   0.0000       0.214653         5.8410 
  13   0.0000       0.227335         6.1861 
  14   0.0000       0.439292        11.9538 
  15   0.0000       0.513453        13.9718 
  16   0.0000       0.513453        13.9718 
  17   0.0000       0.727995        19.8097 
  18   0.0000       0.837292        22.7839 
  19   0.0000       0.903948        24.5977 
  20   0.0000       0.980282        26.6748 
  21   0.0000       0.980282        26.6748 
*Only the first 10 virtual orbitals were printed.

                    ********************************
                    * MULLIKEN POPULATION ANALYSIS *
                    ********************************

-----------------------
MULLIKEN ATOMIC CHARGES
-----------------------
   0 C :    0.721438
   1 O :   -0.360719
   2 O :   -0.360719
Sum of atomic charges:   -0.0000000

--------------------------------
MULLIKEN REDUCED ORBITAL CHARGES
--------------------------------
  0 C s       :     2.893850  s :     2.893850
      pz      :     0.734006  p :     2.117873
      px      :     0.691933
      py      :     0.691933
      dz2     :     0.049199  d :     0.266840
      dxz     :     0.108821
      dyz     :     0.108821
      dx2y2   :     0.000000
      dxy     :     0.000000

  1 O s       :     3.850598  s :     3.850598
      pz      :     1.299584  p :     4.485555
      px      :     1.592986
      py      :     1.592986
      dz2     :     0.011291  d :     0.024566
      dxz     :     0.006637
      dyz     :     0.006637
      dx2y2   :     0.000000
      dxy     :     0.000000

  2 O s       :     3.850598  s :     3.850598
      pz      :     1.299584  p :     4.485555
      px      :     1.592986
      py      :     1.592986
      dz2     :     0.011291  d :     0.024566
      dxz     :     0.006637
      dyz     :     0.006637
      dx2y2   :     0.000000
      dxy     :     0.000000



                     *******************************
                     * LOEWDIN POPULATION ANALYSIS *
                     *******************************

----------------------
LOEWDIN ATOMIC CHARGES
----------------------
   0 C :    0.080711
   1 O :   -0.040355
   2 O :   -0.040355

-------------------------------
LOEWDIN REDUCED ORBITAL CHARGES
-------------------------------
  0 C s       :     2.803967  s :     2.803967
      pz      :     1.160633  p :     2.615148
      px      :     0.727257
      py      :     0.727257
      dz2     :     0.133725  d :     0.500174
      dxz     :     0.183225
      dyz     :     0.183225
      dx2y2   :     0.000000
      dxy     :     0.000000

  1 O s       :     3.469678  s :     3.469678
      pz      :     1.462442  p :     4.539562
      px      :     1.538560
      py      :     1.538560
      dz2     :     0.018717  d :     0.031115
      dxz     :     0.006199
      dyz     :     0.006199
      dx2y2   :     0.000000
      dxy     :     0.000000

  2 O s       :     3.469678  s :     3.469678
      pz      :     1.462442  p :     4.539562
      px      :     1.538560
      py      :     1.538560
      dz2     :     0.018717  d :     0.031115
      dxz     :     0.006199
      dyz     :     0.006199
      dx2y2   :     0.000000
      dxy     :     0.000000



                      *****************************
                      * MAYER POPULATION ANALYSIS *
                      *****************************

  NA   - Mulliken gross atomic population
  ZA   - Total nuclear charge
  QA   - Mulliken gross atomic charge
  VA   - Mayer's total valence
  BVA  - Mayer's bonded valence
  FA   - Mayer's free valence

  ATOM       NA         ZA         QA         VA         BVA        FA
  0 C      5.2786     6.0000     0.7214     4.0906     4.0906    -0.0000
  1 O      8.3607     8.0000    -0.3607     2.1823     2.1823     0.0000
  2 O      8.3607     8.0000    -0.3607     2.1823     2.1823     0.0000

  Mayer bond orders larger than 0.100000
B(  0-C ,  1-O ) :   2.0453 B(  0-C ,  2-O ) :   2.0453 B(  1-O ,  2-O ) :   0.1370 


-------
TIMINGS
-------

Total SCF time: 0 days 0 hours 0 min 0 sec 

Total time                  ....       0.641 sec
Sum of individual times     ....       0.587 sec  ( 91.5%)

SCF preparation             ....       0.018 sec  (  2.8%)
Fock matrix formation       ....       0.553 sec  ( 86.2%)
  Startup                   ....       0.000 sec  (  0.1% of F)
  Coulomb+Exchange Fock     ....       0.593 sec  (107.3% of F)
Diagonalization             ....       0.000 sec  (  0.0%)
Density matrix formation    ....       0.003 sec  (  0.4%)
Total Energy calculation    ....       0.000 sec  (  0.1%)
Population analysis         ....       0.001 sec  (  0.2%)
Orbital Transformation      ....       0.001 sec  (  0.2%)
Orbital Orthonormalization  ....       0.000 sec  (  0.0%)
DIIS solution               ....       0.005 sec  (  0.8%)
SOSCF solution              ....       0.005 sec  (  0.8%)
Finished LeanSCF after   0.6 sec

Maximum memory used throughout the entire LEANSCF-calculation: 7.6 MB

------------------------------------------------------------------------------
                                ORCA  MP2 
------------------------------------------------------------------------------

Freezing NCore=6 chemical core electrons
MP2 will be done in the AO integral direct mode
The Q1-step will be done using symmetric double matrices
Dimension of the basis                    ...   54
Memory devoted for MP2                    ... 4096 MB   
Memory needed for all in one shot         ...    6 MB
Number of MOs that can be treated together... 6693      
MP2 density construction                  ... relaxed
The MP2 gradient is requested => amplitudes will be stored on disk
Total number of MOs              ...    8
Number of MOs treated per batch  ...    8 
Number of batches necessary      ...    1 
OPERATORS   0/  0 PASS   0
-----------------------------------------------
 MP2 CORRELATION ENERGY   :     -0.512634484 Eh
-----------------------------------------------


---------------------
MP2 DENSITY FORMATION
---------------------

Completing the external part of the density      ... done
Storing the unrelaxed density                    ... done

Calculating G(D)                                 ... done
Completing the Lagrangian                        ... done
Solving the Z-vector equations                   ... 
-------------------
SHARK CP-SCF DRIVER
-------------------

Dimension of the orbital basis          ...     54
Dimension of the CPSCF-problem          ...    473
Number of operators                     ...      1
Max. number of iterations               ...    128
Convergence Tolerance                   ... 1.0e-04
Number of perturbations                 ...      1
Perturbation type                       ... REAL

----------------------------
POPLE LINEAR EQUATION SOLVER
----------------------------

  ITERATION   0:   ||err||_max =   8.6589e-02 (   0.1 sec)
  ITERATION   1:   ||err||_max =   2.6554e-02 (   0.1 sec)
  ITERATION   2:   ||err||_max =   8.2619e-03 (   0.1 sec)
  ITERATION   3:   ||err||_max =   1.5733e-03 (   0.1 sec)
  ITERATION   4:   ||err||_max =   2.3190e-04 (   0.1 sec)
  ITERATION   5:   ||err||_max =   2.4419e-05 (   0.1 sec)
                                                 ... done
Finalizing the relaxed density                   ... done
Transforming P to the AO basis                   ... done
Storing the relaxed density                      ... done

------------------------------------
ENERGY WEIGHTED DENSITY FINALIZATION
------------------------------------

Gathering the parts of the W-matrix              ...                                                      done
Forming the Z-density                            ... done
Transforming Z to the AO basis                   ... done
Calculating G(Z)                                 ... done
Finalizing the W-matrix                          ...                                                      done
Transforming W to the AO basis and storing       ... done

                *********************************************
                * UNRELAXED MP2 DENSITY POPULATION ANALYSIS *
                *********************************************

------------------------------------------------------------------------------
                           ORCA POPULATION ANALYSIS
------------------------------------------------------------------------------
Input electron density              ... co2.pmp2ur
BaseName (.gbw .S,...)              ... co2

                    ********************************
                    * MULLIKEN POPULATION ANALYSIS *
                    ********************************

-----------------------
MULLIKEN ATOMIC CHARGES
-----------------------
   0 C :    0.671975
   1 O :   -0.335987
   2 O :   -0.335987
Sum of atomic charges:   -0.0000000

--------------------------------
MULLIKEN REDUCED ORBITAL CHARGES
--------------------------------
  0 C s       :     2.897289  s :     2.897289
      pz      :     0.729996  p :     2.155984
      px      :     0.712994
      py      :     0.712994
      dz2     :     0.050498  d :     0.274752
      dxz     :     0.109896
      dyz     :     0.109896
      dx2y2   :     0.002231
      dxy     :     0.002231
  1 O s       :     3.847532  s :     3.847532
      pz      :     1.292644  p :     4.447851
      px      :     1.577604
      py      :     1.577604
      dz2     :     0.014266  d :     0.040604
      dxz     :     0.009929
      dyz     :     0.009929
      dx2y2   :     0.003240
      dxy     :     0.003240
  2 O s       :     3.847532  s :     3.847532
      pz      :     1.292644  p :     4.447851
      px      :     1.577604
      py      :     1.577604
      dz2     :     0.014266  d :     0.040604
      dxz     :     0.009929
      dyz     :     0.009929
      dx2y2   :     0.003240
      dxy     :     0.003240


                     *******************************
                     * LOEWDIN POPULATION ANALYSIS *
                     *******************************

----------------------
LOEWDIN ATOMIC CHARGES
----------------------
   0 C :    0.036402
   1 O :   -0.018201
   2 O :   -0.018201

-------------------------------
LOEWDIN REDUCED ORBITAL CHARGES
-------------------------------
  0 C s       :     2.806137  s :     2.806137
      pz      :     1.155974  p :     2.649013
      px      :     0.746520
      py      :     0.746520
      dz2     :     0.139979  d :     0.508449
      dxz     :     0.181999
      dyz     :     0.181999
      dx2y2   :     0.002236
      dxy     :     0.002236
  1 O s       :     3.466734  s :     3.466734
      pz      :     1.452754  p :     4.502505
      px      :     1.524875
      py      :     1.524875
      dz2     :     0.022801  d :     0.048962
      dxz     :     0.009843
      dyz     :     0.009843
      dx2y2   :     0.003238
      dxy     :     0.003238
  2 O s       :     3.466734  s :     3.466734
      pz      :     1.452754  p :     4.502505
      px      :     1.524875
      py      :     1.524875
      dz2     :     0.022801  d :     0.048962
      dxz     :     0.009843
      dyz     :     0.009843
      dx2y2   :     0.003238
      dxy     :     0.003238


                      *****************************
                      * MAYER POPULATION ANALYSIS *
                      *****************************

  NA   - Mulliken gross atomic population
  ZA   - Total nuclear charge
  QA   - Mulliken gross atomic charge
  VA   - Mayer's total valence
  BVA  - Mayer's bonded valence
  FA   - Mayer's free valence

  ATOM       NA         ZA         QA         VA         BVA        FA
  0 C      5.3280     6.0000     0.6720     4.1431     3.8167     0.3264
  1 O      8.3360     8.0000    -0.3360     2.4216     2.0219     0.3997
  2 O      8.3360     8.0000    -0.3360     2.4216     2.0219     0.3997

  Mayer bond orders larger than 0.100000
B(  0-C ,  1-O ) :   1.9083 B(  0-C ,  2-O ) :   1.9083 B(  1-O ,  2-O ) :   0.1136 



                *******************************************
                * RELAXED MP2 DENSITY POPULATION ANALYSIS *
                *******************************************

------------------------------------------------------------------------------
                           ORCA POPULATION ANALYSIS
------------------------------------------------------------------------------
Input electron density              ... co2.pmp2re
BaseName (.gbw .S,...)              ... co2

                    ********************************
                    * MULLIKEN POPULATION ANALYSIS *
                    ********************************

-----------------------
MULLIKEN ATOMIC CHARGES
-----------------------
   0 C :    0.481862
   1 O :   -0.240931
   2 O :   -0.240931
Sum of atomic charges:   -0.0000000

--------------------------------
MULLIKEN REDUCED ORBITAL CHARGES
--------------------------------
  0 C s       :     2.898830  s :     2.898830
      pz      :     0.720317  p :     2.373692
      px      :     0.826687
      py      :     0.826687
      dz2     :     0.046435  d :     0.245617
      dxz     :     0.097360
      dyz     :     0.097360
      dx2y2   :     0.002231
      dxy     :     0.002231
  1 O s       :     3.830873  s :     3.830873
      pz      :     1.316704  p :     4.371562
      px      :     1.527429
      py      :     1.527429
      dz2     :     0.012965  d :     0.038496
      dxz     :     0.009525
      dyz     :     0.009525
      dx2y2   :     0.003240
      dxy     :     0.003240
  2 O s       :     3.830873  s :     3.830873
      pz      :     1.316704  p :     4.371562
      px      :     1.527429
      py      :     1.527429
      dz2     :     0.012965  d :     0.038496
      dxz     :     0.009525
      dyz     :     0.009525
      dx2y2   :     0.003240
      dxy     :     0.003240


                     *******************************
                     * LOEWDIN POPULATION ANALYSIS *
                     *******************************

----------------------
LOEWDIN ATOMIC CHARGES
----------------------
   0 C :   -0.097738
   1 O :    0.048869
   2 O :    0.048869

-------------------------------
LOEWDIN REDUCED ORBITAL CHARGES
-------------------------------
  0 C s       :     2.803267  s :     2.803267
      pz      :     1.138186  p :     2.807478
      px      :     0.834646
      py      :     0.834646
      dz2     :     0.142101  d :     0.486993
      dxz     :     0.170210
      dyz     :     0.170210
      dx2y2   :     0.002236
      dxy     :     0.002236
  1 O s       :     3.466366  s :     3.466366
      pz      :     1.464448  p :     4.437338
      px      :     1.486445
      py      :     1.486445
      dz2     :     0.020743  d :     0.047427
      dxz     :     0.010104
      dyz     :     0.010104
      dx2y2   :     0.003238
      dxy     :     0.003238
  2 O s       :     3.466366  s :     3.466366
      pz      :     1.464448  p :     4.437338
      px      :     1.486445
      py      :     1.486445
      dz2     :     0.020743  d :     0.047427
      dxz     :     0.010104
      dyz     :     0.010104
      dx2y2   :     0.003238
      dxy     :     0.003238


                      *****************************
                      * MAYER POPULATION ANALYSIS *
                      *****************************

  NA   - Mulliken gross atomic population
  ZA   - Total nuclear charge
  QA   - Mulliken gross atomic charge
  VA   - Mayer's total valence
  BVA  - Mayer's bonded valence
  FA   - Mayer's free valence

  ATOM       NA         ZA         QA         VA         BVA        FA
  0 C      5.5181     6.0000     0.4819     4.2713     3.9698     0.3015
  1 O      8.2409     8.0000    -0.2409     2.5520     2.1637     0.3884
  2 O      8.2409     8.0000    -0.2409     2.5520     2.1637     0.3884

  Mayer bond orders larger than 0.100000
B(  0-C ,  1-O ) :   1.9849 B(  0-C ,  2-O ) :   1.9849 B(  1-O ,  2-O ) :   0.1787 



----------------------------------
MP2 DERIVATIVE INTEGRAL GENERATION
----------------------------------

Input SCF Electron Density              ... co2.scfp
Input Correlated Electron Density       ... co2.pmp2re
Input Energy Weighted Density           ... co2.wmp2.tmp
Input Wavefunction Amplitudes           ... co2.mp2tsaa.tmp

Nuclear repulsion gradient              ... done (  0.0 sec)
HCore & Overlap gradient  (SHARK)       ... done (  0.0 sec)
Analytic two-electron gradient terms    ... 
  Batch handling in the gradient evaluation:
  General contraction                   ... not used
  Memory available                      ... 4093.7 MB
  Memory per occupied orbital in Q2     ...    0.2 MB
  Memory per occupied orbital in Q3     ...    0.0 MB
  Total memory requirement per |i>      ...    0.2 MB
  Number of orbitals treated per batch  ...      8
  Number of batches to be done          ...      1
done (  0.3 sec)

---------------------------------------
MP2 TOTAL ENERGY:     -188.198349879 Eh
---------------------------------------

The final MP2 gradient
  0:   0.00000000  -0.00000000  -0.00000000
  1:  -0.00000000   0.00000000  -0.03010125
  2:  -0.00000000   0.00000000   0.03010125

-----------------------------------
NORM OF THE MP2 GRADIENT:  0.042570
-----------------------------------

Maximum memory used throughout the entire MP2-calculation: 15.2 MB

-------------------------   --------------------
FINAL SINGLE POINT ENERGY      -188.198349878837
-------------------------   --------------------

------------------------------------------------------------------------------
                         ORCA GEOMETRY RELAXATION STEP
------------------------------------------------------------------------------

Reading the OPT-File                    .... done
Getting information on internals        .... done
Copying old internal coords+grads       .... done
Making the new internal coordinates     .... (2022 redundants) done
Validating the new internal coordinates .... (2022 redundants) done
Calculating the B-matrix                .... done
Calculating the G,G- and P matrices     .... done
Transforming gradient to internals      .... done
Projecting the internal gradient        .... done
Number of atoms                         ....   3
Number of internal coordinates          ....   4
Current Energy                          ....  -188.198349879 Eh
Current gradient norm                   ....     0.042569592 Eh/bohr
Maximum allowed component of the step   ....  0.300
Current trust radius                    ....  0.300
Evaluating the initial hessian          ....  (Almloef) done
Projecting the Hessian                  .... done
Forming the augmented Hessian           .... done
Diagonalizing the augmented Hessian     .... done
Last element of RFO vector              ....  0.999486637
Lowest eigenvalues of augmented Hessian:
 -0.001364565  0.567932258  0.567932258  1.326655919
Length of the computed step             ....  0.032054921
The final length of the internal step   ....  0.032054921
Converting the step to Cartesian space:
 Initial RMS(Int)=    0.0160274607
Transforming coordinates:
 Iter   0:  RMS(Cart)=    0.0106849738 RMS(Int)=    0.0160274607
done
Storing new coordinates                 .... done

                                .--------------------.
          ----------------------|Geometry convergence|-------------------------
          Item                value                   Tolerance       Converged
          ---------------------------------------------------------------------
          RMS gradient        0.0212847961            0.0001000000      NO
          MAX gradient        0.0301012473            0.0003000000      NO
          RMS step            0.0160274607            0.0020000000      NO
          MAX step            0.0226662522            0.0040000000      NO
          -------------------------------------------------------------------------
          ........................................................
          Max(Bonds)      0.0120      Max(Angles)    0.00
          Max(Dihed)        0.00      Max(Improp)    0.00
          ---------------------------------------------------------------------

The optimization has not yet converged - more geometry cycles are needed


    ---------------------------------------------------------------------------
                         Redundant Internal Coordinates
                            (Angstroem and degrees)

        Definition                    Value    dE/dq     Step     New-Value
    ----------------------------------------------------------------------------
     1. B(O   1,C   0)                1.1550 -0.030101  0.0120    1.1670   
     2. B(O   2,C   0)                1.1550 -0.030101  0.0120    1.1670   
     3. L(O   1,C   0,O   2, 2)       180.00 -0.000000   -0.00    180.00   
     4. L(O   1,C   0,O   2, 1)       180.00 -0.000000    0.00    180.00   
    ----------------------------------------------------------------------------

Geometry step timings:
Preparation and reading OPT file:      0.000 s ( 0.542 %)
Internal coordinates            :      0.000 s ( 0.820 %)
B/P matrices and projection     :      0.000 s ( 1.896 %)
Hessian update/contruction      :      0.000 s ( 2.276 %)
Making the step                 :      0.000 s ( 1.896 %)
Converting the step to Cartesian:      0.000 s ( 0.759 %)
Storing new data                :      0.000 s ( 0.735 %)
Checking convergence            :      0.000 s ( 1.579 %)
Final printing                  :      0.012 s (89.489 %)
Total time                      :      0.013 s

Time for energy+gradient        :      2.019 s
Time for complete geometry iter :      2.047 s

         *************************************************************
         *                GEOMETRY OPTIMIZATION CYCLE   2            *
         *************************************************************
---------------------------------
CARTESIAN COORDINATES (ANGSTROEM)
---------------------------------
  C      0.000000   -0.000000   -0.000000
  O     -0.000000    0.000000    1.167022
  O     -0.000000    0.000000   -1.167022

----------------------------
CARTESIAN COORDINATES (A.U.)
----------------------------
  NO LB      ZA    FRAG     MASS         X           Y           Z
   0 C     6.0000    0    12.011    0.000000   -0.000000   -0.000000
   1 O     8.0000    0    15.999   -0.000000    0.000000    2.205353
   2 O     8.0000    0    15.999   -0.000000    0.000000   -2.205353

--------------------------------
INTERNAL COORDINATES (ANGSTROEM)
--------------------------------
 C      0   0   0     0.000000000000     0.00000000     0.00000000
 O      1   0   0     1.167022464085     0.00000000     0.00000000
 O      1   2   0     1.167022464085   180.00000000     0.00000000

---------------------------
INTERNAL COORDINATES (A.U.)
---------------------------
 C      0   0   0     0.000000000000     0.00000000     0.00000000
 O      1   0   0     2.205352849254     0.00000000     0.00000000
 O      1   2   0     2.205352849254   180.00000000     0.00000000

------------------------------------------------------------------------------
                   ___                                                        
                  /   \      - P O W E R E D   B Y -                         
                 /     \                                                     
                 |  |  |   _    _      __       _____    __    __             
                 |  |  |  | |  | |    /  \     |  _  \  |  |  /  |          
                  \  \/   | |  | |   /    \    | | | |  |  | /  /          
                 / \  \   | |__| |  /  /\  \   | |_| |  |  |/  /          
                |  |  |   |  __  | /  /__\  \  |    /   |      \           
                |  |  |   | |  | | |   __   |  |    \   |  |\   \          
                \     /   | |  | | |  |  |  |  | |\  \  |  | \   \       
                 \___/    |_|  |_| |__|  |__|  |_| \__\ |__|  \__/        
                                                                              
                      - O R C A' S   B I G   F R I E N D -                    
                                      &                                       
                       - I N T E G R A L  F E E D E R -                       
                                                                              
 v1 FN, 2020, v2 2021, v3 2022-2024                                           
------------------------------------------------------------------------------


----------------------
SHARK INTEGRAL PACKAGE
----------------------

Number of atoms                             ...      3
Number of basis functions                   ...     54
Number of shells                            ...     24
Maximum angular momentum                    ...      2
Integral batch strategy                     ... SHARK/LIBINT Hybrid
RI-J (if used) integral strategy            ... SPLIT-RIJ (Revised 2003 algorithm where possible)
Printlevel                                  ...      1
Contraction scheme used                     ... SEGMENTED contraction
Prescreening option                         ... SCHWARTZ
   Thresh                                   ... 2.500e-11
   Tcut                                     ... 2.500e-12
   Tpresel                                  ... 2.500e-12 
Coulomb Range Separation                    ... NOT USED
Exchange Range Separation                   ... NOT USED
Multipole approximations                    ... NOT USED
Finite Nucleus Model                        ... NOT USED
CABS basis                                  ... NOT available
Auxiliary Coulomb fitting basis             ... NOT available
Auxiliary J/K fitting basis                 ... NOT available
Auxiliary Correlation fitting basis         ... NOT available
Auxiliary 'external' fitting basis          ... NOT available

Checking pre-screening integrals            ... done (  0.0 sec) Dimension = 24
   => SHARK Basis and OBASIS are compatible. Storing Pre-screening
Shell pair information
Shell pair cut-off parameter TPreSel        ...   2.5e-12
Total number of shell pairs                 ...       300
Shell pairs after pre-screening             ...       292
Total number of primitive shell pairs       ...      1389
Primitive shell pairs kept                  ...      1124
          la=0 lb=0:     74 shell pairs
          la=1 lb=0:    104 shell pairs
          la=1 lb=1:     45 shell pairs
          la=2 lb=0:     36 shell pairs
          la=2 lb=1:     27 shell pairs
          la=2 lb=2:      6 shell pairs

Checking whether 4 symmetric matrices of dimension 54 fit in memory
:Max Core in MB      =   4096.00
 MB in use           =      1.61
 MB left             =   4094.39
 MB needed           =      0.05
 Data fit in memory  = YES
Calculating Nuclear repulsion               ... done (  0.0 sec) ENN=     58.040598829026 Eh

Diagonalization of the overlap matrix:
Smallest eigenvalue                        ... 8.285e-03
Time for diagonalization                   ...    0.000 sec
Threshold for overlap eigenvalues          ... 1.000e-07
Number of eigenvalues below threshold      ... 0
Time for construction of square roots      ...    0.000 sec
Total time needed                          ...    0.001 sec

-------------------
DFT GRID GENERATION
-------------------

General Integration Accuracy     IntAcc      ... 4.388
Radial Grid Type                 RadialGrid  ... OptM3 with GC (2021)
Angular Grid (max. ang.)         AngularGrid ... 4 (Lebedev-302)
Angular grid pruning method      GridPruning ... 4 (adaptive)
Weight generation scheme         WeightScheme... mBecke (2022)
Basis function cutoff            BFCut       ... 1.0000e-11
Integration weight cutoff        WCut        ... 1.0000e-14
Partially contracted basis set               ... off
Rotationally invariant grid construction     ... off
Angular grids for H and He will be reduced by one unit

Total number of grid points                  ...    18360
Total number of batches                      ...      288
Average number of points per batch           ...       63
Average number of grid points per atom       ...     6120
Grids setup in   0.1 sec
Initializing property integral containers    ... done (  0.0 sec)

SHARK setup successfully completed in   0.1 seconds

Maximum memory used throughout the entire STARTUP-calculation: 7.7 MB
Occupation numbers will be reassigned to an Aufbau configuration
             **** ENERGY FILE WAS UPDATED (co2.en.tmp) ****
Finished Guess after   0.0 sec
Maximum memory used throughout the entire GUESS-calculation: 4.1 MB
----------------------------------------D-I-I-S--------------------------------------------
Iteration    Energy (Eh)           Delta-E    RMSDP     MaxDP     DIISErr   Damp  Time(sec)
-------------------------------------------------------------------------------------------
               ***  Starting incremental Fock matrix formation  ***
    1    -187.6826342158833256     0.00e+00  1.12e-04  1.12e-03  1.01e-02  0.700   0.1
    2    -187.6827011535611973    -6.69e-05  9.60e-05  9.99e-04  7.34e-03  0.700   0.1
                               ***Turning on AO-DIIS***
    3    -187.6827498621416908    -4.87e-05  8.78e-05  1.03e-03  5.27e-03  0.700   0.1
    4    -187.6827854910922895    -3.56e-05  2.49e-04  3.02e-03  4.00e-03  0.000   0.1
                              *** Initializing SOSCF ***
---------------------------------------S-O-S-C-F--------------------------------------
Iteration    Energy (Eh)           Delta-E    RMSDP     MaxDP     MaxGrad    Time(sec)
--------------------------------------------------------------------------------------
    5    -187.6828815863969169    -9.61e-05  4.74e-05  5.91e-04  6.87e-04     0.1
               *** Restarting incremental Fock matrix formation ***
    6    -187.6828829775897702    -1.39e-06  1.87e-05  2.37e-04  1.72e-04     0.1
    7    -187.6828831699342004    -1.92e-07  1.52e-05  2.10e-04  7.28e-05     0.0
    8    -187.6828832097774011    -3.98e-08  2.66e-06  3.60e-05  2.20e-05     0.0
    9    -187.6828832129686191    -3.19e-09  6.79e-07  7.91e-06  5.81e-06     0.0
                 **** Energy Check signals convergence ****

               *****************************************************
               *                     SUCCESS                       *
               *           SCF CONVERGED AFTER   9 CYCLES          *
               *****************************************************

             **** ENERGY FILE WAS UPDATED (co2.en.tmp) ****

----------------
TOTAL SCF ENERGY
----------------

Total Energy       :       -187.68288321350460 Eh           -5107.11089 eV

Components:
Nuclear Repulsion  :         58.04059882902573 Eh            1579.36499 eV
Electronic Energy  :       -245.72348204253032 Eh           -6686.47588 eV
One Electron Energy:       -371.84568354048787 Eh          -10118.43546 eV
Two Electron Energy:        126.12220149795755 Eh            3431.95958 eV

Virial components:
Potential Energy   :       -375.08934255700569 Eh          -10206.69991 eV
Kinetic Energy     :        187.40645934350107 Eh            5099.58902 eV
Virial Ratio       :          2.00147499649143

---------------
SCF CONVERGENCE
---------------

  Last Energy change         ...    3.1912e-09  Tolerance :   1.0000e-08
  Last MAX-Density change    ...    7.9113e-06  Tolerance :   1.0000e-07
  Last RMS-Density change    ...    6.7857e-07  Tolerance :   5.0000e-09
  Last DIIS Error            ...    6.8662e-04  Tolerance :   5.0000e-07
  Last Orbital Gradient      ...    5.8119e-06  Tolerance :   1.0000e-05
  Last Orbital Rotation      ...    4.5911e-06  Tolerance :   1.0000e-05


Total SCF time: 0 days 0 hours 0 min 0 sec 
Finished LeanSCF after   0.5 sec

Maximum memory used throughout the entire LEANSCF-calculation: 7.7 MB

------------------------------------------------------------------------------
                                ORCA  MP2 
------------------------------------------------------------------------------

Freezing NCore=6 chemical core electrons
MP2 will be done in the AO integral direct mode
The Q1-step will be done using symmetric double matrices
Dimension of the basis                    ...   54
Memory devoted for MP2                    ... 4096 MB   
Memory needed for all in one shot         ...    6 MB
Number of MOs that can be treated together... 6693      
MP2 density construction                  ... relaxed
The MP2 gradient is requested => amplitudes will be stored on disk
Total number of MOs              ...    8
Number of MOs treated per batch  ...    8 
Number of batches necessary      ...    1 
OPERATORS   0/  0 PASS   0
-----------------------------------------------
 MP2 CORRELATION ENERGY   :     -0.516232192 Eh
-----------------------------------------------


---------------------
MP2 DENSITY FORMATION
---------------------

Completing the external part of the density      ... done
Storing the unrelaxed density                    ... done

Calculating G(D)                                 ... done
Completing the Lagrangian                        ... done
Solving the Z-vector equations                   ... 
-------------------
SHARK CP-SCF DRIVER
-------------------

Dimension of the orbital basis          ...     54
Dimension of the CPSCF-problem          ...    473
Number of operators                     ...      1
Max. number of iterations               ...    128
Convergence Tolerance                   ... 1.0e-04
Number of perturbations                 ...      1
Perturbation type                       ... REAL

----------------------------
POPLE LINEAR EQUATION SOLVER
----------------------------

  ITERATION   0:   ||err||_max =   9.1811e-02 (   0.1 sec)
  ITERATION   1:   ||err||_max =   2.8988e-02 (   0.1 sec)
  ITERATION   2:   ||err||_max =   9.0771e-03 (   0.1 sec)
  ITERATION   3:   ||err||_max =   1.7317e-03 (   0.1 sec)
  ITERATION   4:   ||err||_max =   2.5480e-04 (   0.1 sec)
  ITERATION   5:   ||err||_max =   2.6371e-05 (   0.1 sec)
                                                 ... done
Finalizing the relaxed density                   ... done
Transforming P to the AO basis                   ... done
Storing the relaxed density                      ... done

------------------------------------
ENERGY WEIGHTED DENSITY FINALIZATION
------------------------------------

Gathering the parts of the W-matrix              ...                                                      done
Forming the Z-density                            ... done
Transforming Z to the AO basis                   ... done
Calculating G(Z)                                 ... done
Finalizing the W-matrix                          ...                                                      done
Transforming W to the AO basis and storing       ... done

----------------------------------
MP2 DERIVATIVE INTEGRAL GENERATION
----------------------------------

Input SCF Electron Density              ... co2.scfp
Input Correlated Electron Density       ... co2.pmp2re
Input Energy Weighted Density           ... co2.wmp2.tmp
Input Wavefunction Amplitudes           ... co2.mp2tsaa.tmp

Nuclear repulsion gradient              ... done (  0.0 sec)
HCore & Overlap gradient  (SHARK)       ... done (  0.0 sec)
Analytic two-electron gradient terms    ... 
  Batch handling in the gradient evaluation:
  General contraction                   ... not used
  Memory available                      ... 4093.7 MB
  Memory per occupied orbital in Q2     ...    0.2 MB
  Memory per occupied orbital in Q3     ...    0.0 MB
  Total memory requirement per |i>      ...    0.2 MB
  Number of orbitals treated per batch  ...      8
  Number of batches to be done          ...      1
done (  0.3 sec)

---------------------------------------
MP2 TOTAL ENERGY:     -188.199115405 Eh
---------------------------------------

The final MP2 gradient
  0:   0.00000000  -0.00000000  -0.00000000
  1:  -0.00000000   0.00000000  -0.00401985
  2:  -0.00000000   0.00000000   0.00401985

-----------------------------------
NORM OF THE MP2 GRADIENT:  0.005685
-----------------------------------

Maximum memory used throughout the entire MP2-calculation: 15.3 MB

-------------------------   --------------------
FINAL SINGLE POINT ENERGY      -188.199115405168
-------------------------   --------------------

------------------------------------------------------------------------------
                         ORCA GEOMETRY RELAXATION STEP
------------------------------------------------------------------------------

Reading the OPT-File                    .... done
Getting information on internals        .... done
Copying old internal coords+grads       .... done
Making the new internal coordinates     .... (2022 redundants) done
Validating the new internal coordinates .... (2022 redundants) done
Calculating the B-matrix                .... done
Calculating the G,G- and P matrices     .... done
Transforming gradient to internals      .... done
Projecting the internal gradient        .... done
Number of atoms                         ....   3
Number of internal coordinates          ....   4
Current Energy                          ....  -188.199115405 Eh
Current gradient norm                   ....     0.005684920 Eh/bohr
Maximum allowed component of the step   ....  0.300
Current trust radius                    ....  0.300
Updating the Hessian (BFGS)             .... done
Forming the augmented Hessian           .... done
Diagonalizing the augmented Hessian     .... done
Last element of RFO vector              ....  0.999987796
Lowest eigenvalues of augmented Hessian:
 -0.000028086  0.567932258  0.567932258  1.150699208
Length of the computed step             ....  0.004940405
The final length of the internal step   ....  0.004940405
Converting the step to Cartesian space:
 Initial RMS(Int)=    0.0024702024
Transforming coordinates:
 Iter   0:  RMS(Cart)=    0.0016468016 RMS(Int)=    0.0024702024
done
Storing new coordinates                 .... done
The predicted energy change is          ....    -0.000014043
Previously predicted energy change      ....    -0.000682984
Actually observed energy change         ....    -0.000765526
Ratio of predicted to observed change   ....     1.120856223
New trust radius                        ....     0.450000000

                                .--------------------.
          ----------------------|Geometry convergence|-------------------------
          Item                value                   Tolerance       Converged
          ---------------------------------------------------------------------
          Energy change      -0.0007655263            0.0000050000      NO
          RMS gradient        0.0028424599            0.0001000000      NO
          MAX gradient        0.0040198454            0.0003000000      NO
          RMS step            0.0024702024            0.0020000000      NO
          MAX step            0.0034933937            0.0040000000      YES
          -------------------------------------------------------------------------
          ........................................................
          Max(Bonds)      0.0018      Max(Angles)    0.00
          Max(Dihed)        0.00      Max(Improp)    0.00
          ---------------------------------------------------------------------

The optimization has not yet converged - more geometry cycles are needed


    ---------------------------------------------------------------------------
                         Redundant Internal Coordinates
                            (Angstroem and degrees)

        Definition                    Value    dE/dq     Step     New-Value
    ----------------------------------------------------------------------------
     1. B(O   1,C   0)                1.1670 -0.004020  0.0018    1.1689   
     2. B(O   2,C   0)                1.1670 -0.004020  0.0018    1.1689   
     3. L(O   1,C   0,O   2, 2)       180.00 -0.000000    0.00    180.00   
     4. L(O   1,C   0,O   2, 1)       180.00 -0.000000    0.00    180.00   
    ----------------------------------------------------------------------------

Geometry step timings:
Preparation and reading OPT file:      0.000 s ( 3.782 %)
Internal coordinates            :      0.000 s ( 5.252 %)
B/P matrices and projection     :      0.000 s (15.336 %)
Hessian update/contruction      :      0.000 s (27.521 %)
Making the step                 :      0.000 s ( 9.874 %)
Converting the step to Cartesian:      0.000 s ( 4.622 %)
Storing new data                :      0.000 s ( 5.042 %)
Checking convergence            :      0.000 s (11.134 %)
Final printing                  :      0.000 s (17.017 %)
Total time                      :      0.000 s

Time for energy+gradient        :      1.791 s
Time for complete geometry iter :      1.806 s

         *************************************************************
         *                GEOMETRY OPTIMIZATION CYCLE   3            *
         *************************************************************
---------------------------------
CARTESIAN COORDINATES (ANGSTROEM)
---------------------------------
  C     -0.000000    0.000000   -0.000000
  O      0.000000   -0.000000    1.168871
  O      0.000000   -0.000000   -1.168871

----------------------------
CARTESIAN COORDINATES (A.U.)
----------------------------
  NO LB      ZA    FRAG     MASS         X           Y           Z
   0 C     6.0000    0    12.011   -0.000000    0.000000   -0.000000
   1 O     8.0000    0    15.999    0.000000   -0.000000    2.208846
   2 O     8.0000    0    15.999    0.000000   -0.000000   -2.208846

--------------------------------
INTERNAL COORDINATES (ANGSTROEM)
--------------------------------
 C      0   0   0     0.000000000000     0.00000000     0.00000000
 O      1   0   0     1.168871088412     0.00000000     0.00000000
 O      1   2   0     1.168871088412   179.99999809     0.00000000

---------------------------
INTERNAL COORDINATES (A.U.)
---------------------------
 C      0   0   0     0.000000000000     0.00000000     0.00000000
 O      1   0   0     2.208846242957     0.00000000     0.00000000
 O      1   2   0     2.208846242957   179.99999809     0.00000000

------------------------------------------------------------------------------
                   ___                                                        
                  /   \      - P O W E R E D   B Y -                         
                 /     \                                                     
                 |  |  |   _    _      __       _____    __    __             
                 |  |  |  | |  | |    /  \     |  _  \  |  |  /  |          
                  \  \/   | |  | |   /    \    | | | |  |  | /  /          
                 / \  \   | |__| |  /  /\  \   | |_| |  |  |/  /          
                |  |  |   |  __  | /  /__\  \  |    /   |      \           
                |  |  |   | |  | | |   __   |  |    \   |  |\   \          
                \     /   | |  | | |  |  |  |  | |\  \  |  | \   \       
                 \___/    |_|  |_| |__|  |__|  |_| \__\ |__|  \__/        
                                                                              
                      - O R C A' S   B I G   F R I E N D -                    
                                      &                                       
                       - I N T E G R A L  F E E D E R -                       
                                                                              
 v1 FN, 2020, v2 2021, v3 2022-2024                                           
------------------------------------------------------------------------------


----------------------
SHARK INTEGRAL PACKAGE
----------------------

Number of atoms                             ...      3
Number of basis functions                   ...     54
Number of shells                            ...     24
Maximum angular momentum                    ...      2
Integral batch strategy                     ... SHARK/LIBINT Hybrid
RI-J (if used) integral strategy            ... SPLIT-RIJ (Revised 2003 algorithm where possible)
Printlevel                                  ...      1
Contraction scheme used                     ... SEGMENTED contraction
Prescreening option                         ... SCHWARTZ
   Thresh                                   ... 2.500e-11
   Tcut                                     ... 2.500e-12
   Tpresel                                  ... 2.500e-12 
Coulomb Range Separation                    ... NOT USED
Exchange Range Separation                   ... NOT USED
Multipole approximations                    ... NOT USED
Finite Nucleus Model                        ... NOT USED
CABS basis                                  ... NOT available
Auxiliary Coulomb fitting basis             ... NOT available
Auxiliary J/K fitting basis                 ... NOT available
Auxiliary Correlation fitting basis         ... NOT available
Auxiliary 'external' fitting basis          ... NOT available

Checking pre-screening integrals            ... done (  0.0 sec) Dimension = 24
   => SHARK Basis and OBASIS are compatible. Storing Pre-screening
Shell pair information
Shell pair cut-off parameter TPreSel        ...   2.5e-12
Total number of shell pairs                 ...       300
Shell pairs after pre-screening             ...       292
Total number of primitive shell pairs       ...      1389
Primitive shell pairs kept                  ...      1124
          la=0 lb=0:     74 shell pairs
          la=1 lb=0:    104 shell pairs
          la=1 lb=1:     45 shell pairs
          la=2 lb=0:     36 shell pairs
          la=2 lb=1:     27 shell pairs
          la=2 lb=2:      6 shell pairs

Checking whether 4 symmetric matrices of dimension 54 fit in memory
:Max Core in MB      =   4096.00
 MB in use           =      1.61
 MB left             =   4094.39
 MB needed           =      0.05
 Data fit in memory  = YES
Calculating Nuclear repulsion               ... done (  0.0 sec) ENN=     57.948804905779 Eh

Diagonalization of the overlap matrix:
Smallest eigenvalue                        ... 8.317e-03
Time for diagonalization                   ...    0.000 sec
Threshold for overlap eigenvalues          ... 1.000e-07
Number of eigenvalues below threshold      ... 0
Time for construction of square roots      ...    0.000 sec
Total time needed                          ...    0.001 sec

-------------------
[...]



----------------------------------
MP2 DERIVATIVE INTEGRAL GENERATION
----------------------------------

Input SCF Electron Density              ... co2.scfp
Input Correlated Electron Density       ... co2.pmp2re
Input Energy Weighted Density           ... co2.wmp2.tmp
Input Wavefunction Amplitudes           ... co2.mp2tsaa.tmp

Nuclear repulsion gradient              ... done (  0.0 sec)
HCore & Overlap gradient  (SHARK)       ... done (  0.0 sec)
Analytic two-electron gradient terms    ... 
  Batch handling in the gradient evaluation:
  General contraction                   ... not used
  Memory available                      ... 4093.6 MB
  Memory per occupied orbital in Q2     ...    0.2 MB
  Memory per occupied orbital in Q3     ...    0.0 MB
  Total memory requirement per |i>      ...    0.2 MB
  Number of orbitals treated per batch  ...      8
  Number of batches to be done          ...      1
done (  0.3 sec)

---------------------------------------
MP2 TOTAL ENERGY:     -188.199130377 Eh
---------------------------------------

The final MP2 gradient
  0:  -0.00000000   0.00000000   0.00000000
  1:   0.00000000  -0.00000000  -0.00000373
  2:   0.00000000  -0.00000000   0.00000373

-----------------------------------
NORM OF THE MP2 GRADIENT:  0.000005
-----------------------------------

Maximum memory used throughout the entire MP2-calculation: 15.4 MB

-------------------------   --------------------
FINAL SINGLE POINT ENERGY      -188.199130376740
-------------------------   --------------------

                                *** OPTIMIZATION RUN DONE ***


------------------------------------------------------------------------------
                              ORCA PROPERTY CALCULATIONS
------------------------------------------------------------------------------

GBWName                                 ... co2.gbw
Number of atoms                         ...      3
Number of basis functions               ...     54
Max core memory                         ...   4096 MB

Electric properties:
Dipole moment                           ... YES
Quadrupole moment                       ...  NO
Static polarizability (Dipole/Dipole)   ...  NO
Static polarizability (Dipole/Quad.)    ...  NO
Static polarizability (Quad./Quad.)     ...  NO
Static polarizability (Velocity)        ...  NO
Static hyperpolarizability              ...  NO

Atomic electric properties:
Dipole moment                           ...  NO
Quadrupole moment                       ...  NO
Static polarizability                   ...  NO

Choice of electric origin               ... Center of mass
Position of electric origin             ...     0.000000    -0.000000    -0.000000

General magnetic properties:
Magnetizability                         ...  NO

EPR properties:
g-Tensor (aka g-matrix)                 ...  NO
Zero-Field splitting spin-orbit         ...  NO
Zero-field splitting spin-spin          ...  NO
Hyperfine couplings                     ...  NO (   0 nuclei)
Quadrupole couplings                    ...  NO (   0 nuclei)
Contact density                         ...  NO (   0 nuclei)

NMR properties:
Chemical shifts                         ...  NO (   0 nuclei)
Spin-rotation constants                 ...  NO (   0 nuclei)
Spin-spin couplings                     ...  NO (   0 nuclei,    0 pairs)

Choice of magnetic origin               ... GIAO
Position of magnetic origin             ...     0.000000     0.000000     0.000000

Properties with geometric perturbations:
SCF Hessian                             ...  NO
IR spectrum                             ... YES
VCD spectrum                            ...  NO
X-ray spectroscopy properties:
SCF XES/XAS/RIXS spectra                ...  NO

SCF SOC stabilization energy            ...  NO
Diagonal Born-Oppenheimer correction    ...  NO

-------------
DIPOLE MOMENT
-------------

Method             : SCF
Type of density    : Electron Density
Multiplicity       :   1
Irrep              :   0
Energy             :  -187.6823146337534922 Eh
Basis              : AO
                                X                 Y                 Z
Electronic contribution:     -0.000000001       0.000000002       0.000000000
Nuclear contribution   :      0.000000000      -0.000000000      -0.000000000
                        -----------------------------------------
Total Dipole Moment    :     -0.000000001       0.000000002      -0.000000000
                        -----------------------------------------
Magnitude (a.u.)       :      0.000000002
Magnitude (Debye)      :      0.000000006



--------------------
Rotational spectrum 
--------------------
 
Rotational constants in cm-1:             0.000000             0.385544             0.385544 
Rotational constants in MHz :             0.000000         11558.309343         11558.309343 

Dipole components along the rotational axes: 
x,y,z [a.u.] :     0.000000     0.000000     0.000000 
x,y,z [Debye]:     0.000000     0.000000     0.000000 

 

-------------
DIPOLE MOMENT
-------------

Method             : MP2
Type of density    : Electron Density
Multiplicity       :   1
Level              : Unrelaxed density
Irrep              :   0
Energy             :     0.0000000000000000 Eh
Basis              : AO
                                X                 Y                 Z
Electronic contribution:     -0.000000001       0.000000001       0.000000000
Nuclear contribution   :      0.000000000      -0.000000000      -0.000000000
                        -----------------------------------------
Total Dipole Moment    :     -0.000000001       0.000000001      -0.000000000
                        -----------------------------------------
Magnitude (a.u.)       :      0.000000002
Magnitude (Debye)      :      0.000000005



--------------------
Rotational spectrum 
--------------------
 
Rotational constants in cm-1:             0.000000             0.385544             0.385544 
Rotational constants in MHz :             0.000000         11558.309343         11558.309343 

Dipole components along the rotational axes: 
x,y,z [a.u.] :     0.000000     0.000000     0.000000 
x,y,z [Debye]:     0.000000     0.000000     0.000000 

 

-------------
DIPOLE MOMENT
-------------

Method             : MP2
Type of density    : Electron Density
Multiplicity       :   1
Level              : Relaxed density
Irrep              :   0
Energy             :     0.0000000000000000 Eh
Basis              : AO
                                X                 Y                 Z
Electronic contribution:     -0.000000001       0.000000001       0.000000000
Nuclear contribution   :      0.000000000      -0.000000000      -0.000000000
                        -----------------------------------------
Total Dipole Moment    :     -0.000000001       0.000000001      -0.000000000
                        -----------------------------------------
Magnitude (a.u.)       :      0.000000001
Magnitude (Debye)      :      0.000000003



--------------------
Rotational spectrum 
--------------------
 
Rotational constants in cm-1:             0.000000             0.385544             0.385544 
Rotational constants in MHz :             0.000000         11558.309343         11558.309343 

Dipole components along the rotational axes: 
x,y,z [a.u.] :     0.000000     0.000000     0.000000 
x,y,z [Debye]:     0.000000     0.000000     0.000000 

 

Dipole moment calculation done in   0.0 sec 

Maximum memory used throughout the entire PROP-calculation: 2.2 MB

----------------------------------------------------------------------------
                           ORCA NUMERICAL FREQUENCIES
----------------------------------------------------------------------------

Number of atoms                ... 3
Central differences            ... used
Translation invariance         ... used
Number of displacements        ... 18 - 6
Numerical increment            ... 5.000e-03 bohr
IR-spectrum generation         ... on
Raman-spectrum generation      ... off
Surface Crossing Hessian       ... off

The output will be reduced. Please look at the following files:
SCF program output             ... >co2.lastscf
Integral program output        ... >co2.lastint
Gradient program output        ... >co2.lastgrad
Dipole moment program output   ... >co2.lastmom

	<< Calculating gradient on displaced geometry   1 (of  12) >>
	<< Calculating gradient on displaced geometry   2 (of  12) >>
	<< Calculating gradient on displaced geometry   3 (of  12) >>
	<< Calculating gradient on displaced geometry   4 (of  12) >>
	<< Calculating gradient on displaced geometry   5 (of  12) >>
	<< Calculating gradient on displaced geometry   6 (of  12) >>
	<< Calculating gradient on displaced geometry   7 (of  12) >>
	<< Calculating gradient on displaced geometry   8 (of  12) >>
	<< Calculating gradient on displaced geometry   9 (of  12) >>
	<< Calculating gradient on displaced geometry  10 (of  12) >>
	<< Calculating gradient on displaced geometry  11 (of  12) >>
	<< Calculating gradient on displaced geometry  12 (of  12) >>

-----------------------
VIBRATIONAL FREQUENCIES
-----------------------

Scaling factor for frequencies =  1.000000000  (already applied!)

     0:       0.00 cm**-1
     1:       0.00 cm**-1
     2:       0.00 cm**-1
     3:       0.00 cm**-1
     4:       0.00 cm**-1
     5:     657.43 cm**-1
     6:     657.43 cm**-1
     7:    1341.23 cm**-1
     8:    2455.03 cm**-1


------------
NORMAL MODES
------------

These modes are the Cartesian displacements weighted by the diagonal matrix
M(i,i)=1/sqrt(m[i]) where m[i] is the mass of the displaced atom
Thus, these vectors are normalized but *not* orthogonal

                  0          1          2          3          4          5    
      0       0.000000   0.000000   0.000000   0.000000   0.000000  -0.117899
      1       0.000000   0.000000   0.000000   0.000000   0.000000  -0.875358
      2       0.000000   0.000000   0.000000   0.000000   0.000000  -0.000000
      3       0.000000   0.000000   0.000000   0.000000   0.000000   0.044255
      4       0.000000   0.000000   0.000000   0.000000   0.000000   0.328581
      5       0.000000   0.000000   0.000000   0.000000   0.000000   0.000000
      6       0.000000   0.000000   0.000000   0.000000   0.000000   0.044255
      7       0.000000   0.000000   0.000000   0.000000   0.000000   0.328581
      8       0.000000   0.000000   0.000000   0.000000   0.000000  -0.000000
                  6          7          8    
      0       0.875358  -0.000000   0.000000
      1      -0.117899   0.000000   0.000000
      2       0.000000   0.000142  -0.883262
      3      -0.328581   0.000000   0.000000
      4       0.044255  -0.000000  -0.000000
      5       0.000000   0.707053   0.331639
      6      -0.328581   0.000000  -0.000000
      7       0.044255  -0.000000   0.000000
      8      -0.000000  -0.707160   0.331456


-----------
IR SPECTRUM
-----------

 Mode   freq       eps      Int      T**2         TX        TY        TZ
       cm**-1   L/(mol*cm) km/mol    a.u.
----------------------------------------------------------------------------
  5:    657.43   0.004982   25.18  0.002365  (-0.006491 -0.048194 -0.000000)
  6:    657.43   0.004982   25.18  0.002365  ( 0.048194 -0.006491  0.000000)
  7:   1341.23   0.000000    0.00  0.000000  (-0.000000  0.000000  0.000046)
  8:   2455.03   0.100640  508.59  0.012793  ( 0.000000  0.000000 -0.113104)

* The epsilon (eps) is given for a Dirac delta lineshape.
** The dipole moment derivative (T) already includes vibrational overlap.

The first frequency considered to be a vibration is 5
The total number of vibrations considered is 4


--------------------------
THERMOCHEMISTRY AT 298.15K
--------------------------

Temperature         ...   298.15 K
Pressure            ...     1.00 atm
Total Mass          ...    44.01 AMU
Quasi RRHO          ...     True
Cut-Off Frequency   ...     1.00 cm^-1
The molecule is recognized as being linear

Throughout the following assumptions are being made:
  (1) The electronic state is orbitally nondegenerate
  (2) There are no thermally accessible electronically excited states
  (3) Hindered rotations indicated by low frequency modes are not
      treated as such but are treated as vibrations and this may
      cause some error
  (4) All equations used are the standard statistical mechanics
      equations for an ideal gas
  (5) All vibrations are strictly harmonic

freq.     657.43  E(vib)   ...       0.08 
freq.     657.43  E(vib)   ...       0.08 
freq.    1341.23  E(vib)   ...       0.01 
freq.    2455.03  E(vib)   ...       0.00 

------------
INNER ENERGY
------------

The inner energy is: U= E(el) + E(ZPE) + E(vib) + E(rot) + E(trans)
    E(el)   - is the total energy from the electronic structure calculation
              = E(kin-el) + E(nuc-el) + E(el-el) + E(nuc-nuc)
    E(ZPE)  - the the zero temperature vibrational energy from the frequency calculation
    E(vib)  - the the finite temperature correction to E(ZPE) due to population
              of excited vibrational states
    E(rot)  - is the rotational thermal energy
    E(trans)- is the translational thermal energy

Summary of contributions to the inner energy U:
Electronic energy                ...   -188.19913012 Eh
Zero point energy                ...      0.01164399 Eh       7.31 kcal/mol
Thermal vibrational correction   ...      0.00027154 Eh       0.17 kcal/mol
Thermal rotational correction    ...      0.00094418 Eh       0.59 kcal/mol
Thermal translational correction ...      0.00141627 Eh       0.89 kcal/mol
-----------------------------------------------------------------------
Total thermal energy                   -188.18485414 Eh


Summary of corrections to the electronic energy:
(perhaps to be used in another calculation)
Total thermal correction                  0.00263199 Eh       1.65 kcal/mol
Non-thermal (ZPE) correction              0.01164399 Eh       7.31 kcal/mol
-----------------------------------------------------------------------
Total correction                          0.01427598 Eh       8.96 kcal/mol


--------
ENTHALPY
--------

The enthalpy is H = U + kB*T
                kB is Boltzmann's constant
Total thermal energy              ...   -188.18485414 Eh 
Thermal Enthalpy correction       ...      0.00094421 Eh       0.59 kcal/mol
-----------------------------------------------------------------------
Total Enthalpy                    ...   -188.18390993 Eh


Note: Rotational entropy computed according to Herzberg 
Infrared and Raman Spectra, Chapter V,1, Van Nostrand Reinhold, 1945 
Point Group:  D(inf)h, Symmetry Number:   2  
Rotational constants in cm-1:     0.000000     0.385544     0.385544 

Vibrational entropy computed according to the QRRHO of S. Grimme
Chem.Eur.J. 2012 18 9955 using a reference frequency of 100.0 cm-1


-------
ENTROPY
-------

The entropy contributions are T*S = T*(S(el)+S(vib)+S(rot)+S(trans))
     S(el)   - electronic entropy
     S(vib)  - vibrational entropy
     S(rot)  - rotational entropy
     S(trans)- translational entropy
The entropies will be listed as multiplied by the temperature to get
units of energy

Electronic entropy                ...      0.00000000 Eh      0.00 kcal/mol
Vibrational entropy               ...      0.00035415 Eh      0.22 kcal/mol
Rotational entropy                ...      0.00622571 Eh      3.91 kcal/mol
Translational entropy             ...      0.01770880 Eh     11.11 kcal/mol
-----------------------------------------------------------------------
Final entropy term                ...      0.02428865 Eh     15.24 kcal/mol


-------------------
GIBBS FREE ENERGY
-------------------

The Gibbs free energy is G = H - T*S

Total enthalpy                    ...   -188.18390993 Eh 
Total entropy correction          ...     -0.02428865 Eh    -15.24 kcal/mol
-----------------------------------------------------------------------
Final Gibbs free energy         ...   -188.20819858 Eh

For completeness - the Gibbs free energy minus the electronic energy
G-E(el)                           ...     -0.00906846 Eh     -5.69 kcal/mol



--------------------------------
SUGGESTED CITATIONS FOR THIS RUN
--------------------------------

Below you find a list of papers that are relevant to this ORCA run
We neither can nor want to force you to cite these papers, but we appreciate if you do
You receive ORCA, which is the product of decades of hard work by many enthusiastic individuals, for free
The only thing we kindly ask in return is that you cite our papers,
We deeply appreciate it, if you show your appreciation for ORCA by not just citing the generic ORCA reference.

Please note that relegating all ORCA citations to the supporting information does *not* help us.
SI sections are not indexed - citations you put there will not count into any citation statistics
But we need these citations in order to attract the funding resources that allow us to do what we are doing

Therefore, if you are a happy ORCA user, please consider citing a few of the papers listed below in the main body of your paper

In addition to the list printed below, the program has created the file co2.bibtex that contains the list in bibtex format
You can import this file easily into all common literature databanks and citation aid programs


List of essential papers. We consider these as the minimum necessary citations

  1. Neese, F.
     Software update: the ORCA program system, version 6.0
     WIRES Comput. Molec. Sci. 2025 15(1), e70019
     doi.org/10.1002/wcms.7019

List of papers to cite with high priority. The work reported in these papers was absolutely
necessary for this run to complete.
Our perspective: the developers of density functionals and basis sets usually get cited in chemistry papers
Good! But without the algorithms to do something with them, the functionals or basis sets would not do anything.
Hence, in our opinion, the algorithm design and method developments papers are equally worthy of getting cited

  1. Neese, F.
     The SHARK Integral Generation and Digestion System
     J. Comp. Chem. 2022 44(3), 381
     doi.org/10.1002/jcc.26942

List of suggested additional citations. These are papers that are important in the 'surrounding' of 
of this run, or papers that preceded the highly important papers. If you like your results we are grateful for a citation.

  1. Neese, F.
     The ORCA program system
     WIRES Comput. Molec. Sci. 2012 2(1), 73-78
     doi.org/10.1002/wcms.81
  2. Neese, F.
     Software update: the ORCA program system, version 4.0
     WIRES Comput. Molec. Sci. 2018 8(1), 1-6
     doi.org/10.1002/wcms.1327
  3. Neese, F.; Wennmohs, F.; Becker, U.; Riplinger, C.
     The ORCA quantum chemistry program package
     J. Chem. Phys. 2020 152(22), 224108
     doi.org/10.1063/5.0004608
  4. Neese, F.
     Software update: The ORCA program system—Version 5.0
     WIRES Comput. Molec. Sci. 2022 12(1), e1606
     doi.org/10.1002/wcms.1606

List of optional additional citations

  1. Neese, F.
     Approximate second-order SCF convergence for spin unrestricted wavefunctions
     Chem. Phys. Lett. 2000 325(1-3), 93-98
     doi.org/10.1016/s0009-2614(00)00662-x

Timings for individual modules:

Sum of individual times          ...       34.954 sec (=   0.583 min)
Startup calculation              ...        0.552 sec (=   0.009 min)   1.6 %
SCF iterations                   ...        2.212 sec (=   0.037 min)   6.3 %
Property calculations            ...        0.044 sec (=   0.001 min)   0.1 %
MP2 module                       ...        5.559 sec (=   0.093 min)  15.9 %
Geometry relaxation              ...        0.019 sec (=   0.000 min)   0.1 %
Numerical frequency calculation  ...       26.567 sec (=   0.443 min)  76.0 %
                             ****ORCA TERMINATED NORMALLY****
TOTAL RUN TIME: 0 days 0 hours 0 minutes 33 seconds 678 msec
