
                                 *****************
                                 * O   R   C   A *
                                 *****************

                                            #,                                       
                                            ###                                      
                                            ####                                     
                                            #####                                    
                                            ######                                   
                                           ########,                                 
                                     ,,################,,,,,                         
                               ,,#################################,,                 
                          ,,##########################################,,             
                       ,#########################################, ''#####,          
                    ,#############################################,,   '####,        
                  ,##################################################,,,,####,       
                ,###########''''           ''''###############################       
              ,#####''   ,,,,##########,,,,          '''####'''          '####       
            ,##' ,,,,###########################,,,                        '##       
           ' ,,###''''                  '''############,,,                           
         ,,##''                                '''############,,,,        ,,,,,,###''
      ,#''                                            '''#######################'''  
     '                                                          ''''####''''         
             ,#######,   #######,   ,#######,      ##                                
<<<<<<< HEAD
            ,#'     '#,  ##    ##  ,#'     '#,    #''#        ,####,    ,#,          
            ##       ##  ##   ,#'  ##            #'  '#       #'       ,# #          
            ##       ##  #######   ##           ,######,      #####,      #          
            '#,     ,#'  ##    ##  '#,     ,#' ,#      #,     #,   #      #          
             '#######'   ##     ##  '#######'  #'      '#     '####' #    #          
=======
            ,#'     '#,  ##    ##  ,#'     '#,    #''#        ,####,   ,####,        
            ##       ##  ##   ,#'  ##            #'  '#       #'       #'  '#        
            ##       ##  #######   ##           ,######,      #####,   #    #        
            '#,     ,#'  ##    ##  '#,     ,#' ,#      #,     #,   #   #,  ,#        
             '#######'   ##     ##  '#######'  #'      '#     '####' # '####'        
>>>>>>> 0c29d438a49df62ff2fa5bbfa969bdc702e9668e



                #########################################################
                #                        -***-                          #
                #          Department of theory and spectroscopy        #
                #                                                       #
                #                      Frank Neese                      #
                #                                                       #
                #     Directorship, Architecture, Infrastructure        #
                #                    SHARK, DRIVERS                     #
                #        Core code/Algorithms in most modules           #
                #                                                       #
                #        Max Planck Institute fuer Kohlenforschung      #
                #                Kaiser Wilhelm Platz 1                 #
                #                 D-45470 Muelheim/Ruhr                 #
                #                      Germany                          #
                #                                                       #
                #                  All rights reserved                  #
                #                        -***-                          #
                #########################################################


<<<<<<< HEAD
                         Program Version 6.1.0  -  RELEASE   -
                                (GIT: $679e74b$)
                          ($2025-06-10 18:02:51 +0200$)


 With contributions from (in alphabetic order):
[Max-Planck-Institut fuer Kohlenforschung]                               
  Daniel Aravena         : Magnetic Suceptibility                        
  Michael Atanasov       : Ab Initio Ligand Field Theory (pilot matlab implementation)
  Alexander A. Auer      : GIAO ZORA, VPT2 properties, NMR spectrum      
  Ute Becker             : All parallelization in ORCA, NUMFREQ, NUMCALC 
  Giovanni Bistoni       : ED, misc. LED, open-shell LED, HFLD           
  Dmytro Bykov           : pre 5.0 version of the SCF Hessian            
  Marcos Casanova-Páez   : Triplet and SCS-CIS(D). UHF-(DLPNO)-IP/EA/STEOM-CCSD. UHF-CVS-IP/STEOM-CCSD   
  Vijay G. Chilkuri      : MRCI spin determinant printing, contributions to CSF-ICE 
  Pauline Colinet        : FMM embedding                                 
  Dipayan Datta          : RHF DLPNO-CCSD density                        
  Achintya Kumar Dutta   : EOM-CC, STEOM-CC                              
  Nicolas Foglia         : Exact transition moments, OPA infrastructure, MCD improvements    
  Dmitry Ganyushin       : Spin-Orbit,Spin-Spin,Magnetic field MRCI      
  Miquel Garcia-Rates    : C-PCM and meta-GGA Hessian, CCSD/C-PCM, Gaussian charge scheme 
  Tiago L. C. Gouveia    : GS-ROHF, GS-ROCIS                             
  Yang Guo               : DLPNO-NEVPT2, F12-NEVPT2, CIM, IAO-localization        
  Andreas Hansen         : Spin unrestricted coupled pair/coupled cluster methods 
  Ingolf Harden          : AUTO-CI MPn and infrastructure                
  Benjamin Helmich-Paris : MC-RPA, TRAH-(SCF,CASSCF), AVAS, COSX integrals, SCF dyn. polar., MC-PDFT, srDFT 
  Lee Huntington         : MR-EOM, pCC                                   
  Robert Izsak           : Overlap fitted RIJCOSX, COSX-SCS-MP3, EOM     
  Riya Kayal             : Wick's Theorem for AUTO-CI, AUTO-CI UHF-CCSDT 
  Emily Kempfer          : AUTO-CI RHF CISDT and CCSDT, approximate NEVPT4
  Christian Kollmar      : KDIIS, OOCD, Brueckner-CCSD(T), CCSD density, CASPT2, CASPT2-K, improved NEVPT2 
  Axel Koslowski         : Symmetry handling                             
  Simone Kossmann        : meta-GGA functionals, TD-DFT gradient, OOMP2, (MP2 Hessian; deprecated post 5.0) 
  Lucas Lang             : DCDCAS, Hyperfine gauge corrections, ICE-SOC+SSC
  Marvin Lechner         : AUTO-CI (C++ implementation), FIC-MRCC        
  Spencer Leger          : CASSCF response                               
  Dagmar Lenk            : GEPOL surface, SMD, ORCA-2-JSON               
  Dimitrios Liakos       : Extrapolation schemes; Compound Job, Property file
  Dimitrios Manganas     : Further ROCIS development; embedding schemes. LFT, Crystal Embedding 
  Dimitrios Pantazis     : SARC Basis sets                               
  Anastasios Papadopoulos: AUTO-CI, single reference methods and gradients 
  Taras Petrenko         : pre 6.0 DFT Hessian and TD-DFT gradient,  ECA, NRVS 
  Petra Pikulova         : Analytic Raman intensities                    
  Peter Pinski           : DLPNO-MP2, DLPNO-MP2 Gradient                 
  Shashank Vittal Rao    : ES-AILFT, MagRelax                            
  Christoph Reimann      : Effective Core Potentials                     
  Marius Retegan         : Local ZFS, SOC                                
  Christoph Riplinger    : Optimizer, TS searches, QM/MM, DLPNO-CCSD(T), (RO)-DLPNO pert. Triples 
  Michael Roemelt        : Original ROCIS implementation, recursive CI coupling coefficients
  Masaaki Saitow         : Open-shell DLPNO-CCSD energy and density      
  Barbara Sandhoefer     : DKH picture change effects                    
  Yorick L. A. Schmerwitz: GMF and freeze-and-release deltaSCF, NEB S-IDPP initial path                    
  Kantharuban Sivalingam : CASSCF convergence/infrastructure, NEVPT2, NEVPT3, NEVPT4(SD), FIC-MRCI and CEPA variants
  Bernardo de Souza      : ESD, SOC TD-DFT                               
  Georgi L. Stoychev     : AutoAux, RI-MP2 NMR, DLPNO-MP2 response, X2C  
  Van Anh Tran           : RI-MP2 g-tensors                              
  Willem Van den Heuvel  : Paramagnetic NMR                              
  Zikuan Wang            : NOTCH, Electric field optimization            
  Frank Wennmohs         : Technical directorship and infrastructure     
  Hang Xu                : AUTO-CI-Response properties                   
                                                                         
[FACCTs GmbH]                                                            
  Markus Bursch, Nicolas Foglia, Miquel Garcia-Rates, Ingolf Harden, Hagen Neugebauer, Anastasios Papadopoulos, 
  Christoph Riplinger, Bernardo de Souza, Georgi L. Stoychev                                                    
                                                                 
  APM, various basis sets, CI-OPT, improved COSX, DLPNO-Multilevel,           
  DOCKER, DRACO, updates on ESD, Fragmentator, GOAT, IRC, LR-CPCM, L-BFGS, MBIS, meta-GGA TD-DFT gradient, ML-optimized integration grids, 
  MM, NACMEs, nearIR, NEB, NEB-TS, NL-DFT gradient (VV10), 2- and 3-layer-ONIOM, interface openCOSMO-RS, QMMM,   
  Crystal-QMMM, RESP, rigid body optimization, SF, symmetry and pop. for TD-DFT, various functionals, SOLVATOR                                   
                                                                         
[Other institutions]                                                     
  V. Asgeirsson          : NEB                                           
  Christoph Bannwarth    : sTDA-DFT, sTD-DFT, PBEh-3c, B97-3c, D3        
  Giovanni Bistoni       : ETS/NOCV, ADLD/ADEX, COVALED                  
  Martin Brehm           : Molecular dynamics                            
  Ronald Cardenas        : ETS/NOCV                                      
  Martina Colucci        : COVALED                                       
  Sebastian Ehlert       : rSCAN, r2SCAN, r2SCAN-3c, D4, dhf basis sets  
  Marvin Friede          : D4 for Fr, Ra, Ac-Lr                          
  Lars Goerigk           : TD-DFT with DH, B97 family of functionals     
  Stefan Grimme          : VdW corrections, initial TS optimization, DFT functionals, gCP, sTDA/sTD-DF 
  Waldemar Hujo          : DFT-NL                                        
  H. Jonsson             : NEB                                           
  Holger Kruse           : gCP                                           
  Marcel Mueller         : wB97X-3c, vDZP basis set                      
  Hagen Neugebauer       : wr2SCAN, Native XTB                           
  Gianluca Regni         : ADLD/ADEX                                     
  Tobias Risthaus        : pre 6.0 range-separated hybrid DFT and stability analysis
  Lukas Wittmann         : regularized MP2, r2SCAN double-hybrids, wr2SCAN        
                                                                         
We gratefully acknowledge several colleagues who have allowed us to      
interface, adapt or use parts of their codes:                            
  Ed Valeev, F. Pavosevic, A. Kumar             : LibInt (2-el integral package), F12 methods 
  Garnet Chan, S. Sharma, J. Yang, R. Olivares  : DMRG                   
  Ulf Ekstrom                                   : XCFun DFT Library      
  Mihaly Kallay                                 : mrcc  (arbitrary order and MRCC methods)
  Frank Weinhold                                : gennbo (NPA and NBO analysis)           
  Simon Mueller                                 : openCOSMO-RS                            
  Christopher J. Cramer and Donald G. Truhlar   : smd solvation model                     
  S Lehtola, MJT Oliveira, MAL Marques          : LibXC Library                           
  Liviu Ungur et al                             : ANISO software                          
=======
                         Program Version 6.0.0  -   RELEASE  -


 With contributions from (in alphabetic order):
   Daniel Aravena         : Magnetic Suceptibility
   Michael Atanasov       : Ab Initio Ligand Field Theory (pilot matlab implementation)
   Alexander A. Auer      : GIAO ZORA, VPT2 properties, NMR spectrum
   Ute Becker             : All parallelization in ORCA, NUMFREQ, NUMCALC
   Giovanni Bistoni       : ED, misc. LED, open-shell LED, HFLD
   Martin Brehm           : Molecular dynamics
   Dmytro Bykov           : pre 5.0 version of the SCF Hessian
   Marcos Casanova-Páez   : Triplet and SCS-CIS(D). UHF-(DLPNO)-IP/EA/STEOM-CCSD. UHF-CVS-IP/STEOM-CCSD
   Vijay G. Chilkuri      : MRCI spin determinant printing, contributions to CSF-ICE
   Pauline Colinet        : FMM embedding
   Dipayan Datta          : RHF DLPNO-CCSD density
   Achintya Kumar Dutta   : EOM-CC, STEOM-CC
   Nicolas Foglia         : Exact transition moments, OPA infrastructure, MCD improvements
   Dmitry Ganyushin       : Spin-Orbit,Spin-Spin,Magnetic field MRCI
   Miquel Garcia          : C-PCM and meta-GGA Hessian, CCSD/C-PCM, Gaussian charge scheme
   Tiago L. C. Gouveia    : GS-ROHF, GS-ROCIS
   Yang Guo               : DLPNO-NEVPT2, F12-NEVPT2, CIM, IAO-localization
   Andreas Hansen         : Spin unrestricted coupled pair/coupled cluster methods
   Ingolf Harden          : AUTO-CI MPn and infrastructure 
   Benjamin Helmich-Paris : MC-RPA, TRAH-(SCF,CASSCF), AVAS, COSX integrals, SCF dyn. polar.
   Lee Huntington         : MR-EOM, pCC
   Robert Izsak           : Overlap fitted RIJCOSX, COSX-SCS-MP3, EOM
   Riya Kayal             : Wick's Theorem for AUTO-CI, AUTO-CI UHF-CCSDT
   Emily Kempfer          : AUTO-CI, RHF CISDT and CCSDT
   Christian Kollmar      : KDIIS, OOCD, Brueckner-CCSD(T), CCSD density, CASPT2, CASPT2-K, improved NEVPT2
   Axel Koslowski         : Symmetry handling
   Simone Kossmann        : Meta GGA functionals, TD-DFT gradient, OOMP2, (MP2 Hessian; deprecated post 5.0)
   Lucas Lang             : DCDCAS
   Marvin Lechner         : AUTO-CI (C++ implementation), FIC-MRCC
   Spencer Leger          : CASSCF response
   Dagmar Lenk            : GEPOL surface, SMD, ORCA-2-JSON
   Dimitrios Liakos       : Extrapolation schemes; Compound Job, initial MDCI parallelization
   Dimitrios Manganas     : Further ROCIS development; embedding schemes. LFT, Crystal Embedding
   Dimitrios Pantazis     : SARC Basis sets
   Anastasios Papadopoulos: AUTO-CI, single reference methods and gradients
   Taras Petrenko         : pre 6.0 DFT Hessian and TD-DFT gradient, (ASA, deprecated), ECA, 1-Electron XAS/XES, NRVS
   Peter Pinski           : DLPNO-MP2, DLPNO-MP2 Gradient
   Christoph Reimann      : Effective Core Potentials
   Marius Retegan         : Local ZFS, SOC
   Christoph Riplinger    : Optimizer, TS searches, QM/MM, DLPNO-CCSD(T), (RO)-DLPNO pert. Triples
   Michael Roemelt        : Original ROCIS implementation
   Masaaki Saitow         : Open-shell DLPNO-CCSD energy and density
   Barbara Sandhoefer     : DKH picture change effects
   Kantharuban Sivalingam : CASSCF convergence/infrastructure, NEVPT2 and variants, FIC-MRCI
   Bernardo de Souza      : ESD, SOC TD-DFT
   Georgi Stoychev        : AutoAux, RI-MP2 NMR, DLPNO-MP2 response, X2C
   Van Anh Tran           : RI-MP2 g-tensors
   Willem Van den Heuvel  : Paramagnetic NMR
   Zikuan Wang            : NOTCH, Electric field optimization 
   Frank Wennmohs         : Technical directorship and infrastructure
   Hang Xu                : AUTO-CI-Response properties 


 We gratefully acknowledge several colleagues who have allowed us to
 interface, adapt or use parts of their codes:
   Stefan Grimme, W. Hujo, H. Kruse, P. Pracht,  : VdW corrections, initial TS optimization,
                  C. Bannwarth, S. Ehlert,         DFT functionals, gCP, sTDA/sTD-DF
                  L. Wittmann, M. Mueller
   Ed Valeev, F. Pavosevic, A. Kumar             : LibInt (2-el integral package), F12 methods
   Garnet Chan, S. Sharma, J. Yang, R. Olivares  : DMRG
   Ulf Ekstrom                                   : XCFun DFT Library
   Mihaly Kallay                                 : mrcc  (arbitrary order and MRCC methods)
   Frank Weinhold                                : gennbo (NPA and NBO analysis)
   Simon Mueller                                 : openCOSMO-RS
   Christopher J. Cramer and Donald G. Truhlar   : smd solvation model
   Lars Goerigk                                  : TD-DFT with DH, B97 family of functionals
   V. Asgeirsson, H. Jonsson                     : NEB implementation
   FAccTs GmbH                                   : IRC, NEB, NEB-TS, DLPNO-Multilevel, CI-OPT
                                                   MM, QMMM, 2- and 3-layer-ONIOM, Crystal-QMMM,
                                                   LR-CPCM, SF, NACMEs, symmetry and pop. for TD-DFT,
                                                   nearIR, NL-DFT gradient (VV10), updates on ESD,
                                                   ML-optimized integration grids, MBIS, APM,
                                                   GOAT, DOCKER, SOLVATOR, interface openCOSMO-RS
   S Lehtola, MJT Oliveira, MAL Marques          : LibXC Library
   Liviu Ungur et al                             : ANISO software
>>>>>>> 0c29d438a49df62ff2fa5bbfa969bdc702e9668e


 Your calculation uses the libint2 library for the computation of 2-el integrals
 For citations please refer to: http://libint.valeyev.net

<<<<<<< HEAD
 Your ORCA version has been built with support for libXC version: 7.0.0
=======
 Your ORCA version has been built with support for libXC version: 6.2.2
>>>>>>> 0c29d438a49df62ff2fa5bbfa969bdc702e9668e
 For citations please refer to: https://libxc.gitlab.io

 This ORCA versions uses:
   CBLAS   interface :  Fast vector & matrix operations
   LAPACKE interface :  Fast linear algebra routines
   SCALAPACK package :  Parallel linear algebra routines
   Shared memory     :  Shared parallel matrices
<<<<<<< HEAD
   BLAS/LAPACK       :  OpenBLAS 0.3.29  USE64BITINT DYNAMIC_ARCH NO_AFFINITY Haswell SINGLE_THREADED
        Core in use  :  Haswell
   Copyright (c) 2011-2014, The OpenBLAS Project


  ***********************************
  * Starting time: Wed Aug  6 16:57:19 2025
  * Host name:     sv1-c724
  * Process ID:    31809
  * Working dir.:  /home/lme/practical_course/practical_course_bachelor/H2/b3lyp_6_311_g_dp
  ***********************************

=======
   BLAS/LAPACK       :  OpenBLAS 0.3.27  USE64BITINT DYNAMIC_ARCH NO_AFFINITY Zen SINGLE_THREADED
        Core in use  :  Zen
   Copyright (c) 2011-2014, The OpenBLAS Project


>>>>>>> 0c29d438a49df62ff2fa5bbfa969bdc702e9668e
Warning: RI is on but no J-basis has been assigned. Assigning Def2/J (nothing to worry about!)
================================================================================

----- Orbital basis set information -----
Your calculation utilizes the basis: 6-311G(d,p)
   H, Li - Ne  : R. Krishnan, J. S. Binkley, R. Seeger and J. A. Pople, J. Chem. Phys. 72, 650 (1980).
   Na - Ar     : A. D. McLean and G. S. Chandler J. Chem. Phys. 72, 5639, (1980).
   K  - Ca     : J.-P. Blaudeau, M. P. McGrath, L. A. Curtiss and L. Radom, J. Chem. Phys. 107, 5016 (1997).
   Ga - Kr     : L. A. Curtiss, M. P. McGrath, J.-P. Blandeau, N. E. Davis, R. C. Binning and L. Radom, J. Chem. Phys. 103, 6104 (1995).
   Pol./Diff.
   H, Li - Cl  : T. Clark, J. Chandrasekhar and P. v. R. Schleyer, J. Comp. Chem. 4, 294 (1983).
   H - Ne      : M. J. Frisch, J. A. Pople and J. S. Binkley, J. Chem. Phys. 80, 3265 (1984).

----- AuxJ basis set information -----
Your calculation utilizes the auxiliary basis: def2/J
<<<<<<< HEAD
   H-Rn: F. Weigend, Phys. Chem. Chem. Phys. 8, 1057 (2006).
   Fr-Lr: K. Eichkorn, F. Weigend, O. Treutler, R. Ahlrichs; Theor. Chem. Acc. 97, 119 (1997).
=======
   F. Weigend, Phys. Chem. Chem. Phys. 8, 1057 (2006).
>>>>>>> 0c29d438a49df62ff2fa5bbfa969bdc702e9668e

================================================================================
                                        WARNINGS
                       Please study these warnings very carefully!
================================================================================

<<<<<<< HEAD
=======
WARNING: Old DensityContainer found on disk!
         Will remove this file - 
         If you want to keep old densities, please start your calculation with a different basename. 

>>>>>>> 0c29d438a49df62ff2fa5bbfa969bdc702e9668e

WARNING: Analytical and numerical frequencies both set to true
  ===> : Disabling Anfreq

WARNING: Geometry Optimization
  ===> : Switching off AutoStart
         For restart on a previous wavefunction, please use MOREAD

================================================================================
                                       INPUT FILE
================================================================================
NAME = h2.inp
|  1> ! B3LYP 6-311G(d,p) OPT FREQ NUMFREQ
|  2> * xyz 0 1
<<<<<<< HEAD
|  3> H 0.0 0.0 -0.37
|  4> H 0.0 0.0  0.37
|  5> *
|  6> 
|  7> 
|  8>                          ****END OF INPUT****
=======
|  3> H  -0.370700   0.000000   0.000000
|  4> H   0.370700   0.000000   0.000000
|  5> *
|  6> 
|  7>                          ****END OF INPUT****
>>>>>>> 0c29d438a49df62ff2fa5bbfa969bdc702e9668e
================================================================================

                       *****************************
                       * Geometry Optimization Run *
                       *****************************

Geometry optimization settings:
Update method            Update   .... BFGS
Choice of coordinates    CoordSys .... (2022) Redundant Internals
Initial Hessian          InHess   .... Almloef's Model
Max. no of cycles        MaxIter  .... 50

Convergence Tolerances:
Energy Change            TolE     ....  5.0000e-06 Eh
Max. Gradient            TolMAXG  ....  3.0000e-04 Eh/bohr
RMS Gradient             TolRMSG  ....  1.0000e-04 Eh/bohr
Max. Displacement        TolMAXD  ....  4.0000e-03 bohr
RMS Displacement         TolRMSD  ....  2.0000e-03 bohr
Strict Convergence                .... False

------------------------------------------------------------------------------
                        ORCA OPTIMIZATION COORDINATE SETUP
------------------------------------------------------------------------------

The optimization will be done in redundant internal coordinates (2022)
Making redundant internal coordinates   ...  (2022 redundants) done
Evaluating the initial hessian          ...  (Almloef) done
Evaluating the coordinates              ...  done
Calculating the B-matrix                .... done
Calculating the G-matrix                .... done
<<<<<<< HEAD
=======
Diagonalizing the G-matrix              .... done
The first mode is                       ....    0
>>>>>>> 0c29d438a49df62ff2fa5bbfa969bdc702e9668e
The number of degrees of freedom        ....    1

    -----------------------------------------------------------------
                    Redundant Internal Coordinates


    -----------------------------------------------------------------
         Definition                    Initial Value    Approx d2E/dq
    -----------------------------------------------------------------
<<<<<<< HEAD
      1. B(H   1,H   0)                  0.7400         0.249390   
=======
      1. B(H   1,H   0)                  0.7414         0.248111   
>>>>>>> 0c29d438a49df62ff2fa5bbfa969bdc702e9668e
    -----------------------------------------------------------------

Number of atoms                         .... 2
Number of degrees of freedom            .... 1


         *************************************************************
         *                GEOMETRY OPTIMIZATION CYCLE   1            *
         *************************************************************
---------------------------------
CARTESIAN COORDINATES (ANGSTROEM)
---------------------------------
<<<<<<< HEAD
  H      0.000000    0.000000   -0.370000
  H      0.000000    0.000000    0.370000
=======
  H     -0.370700    0.000000    0.000000
  H      0.370700    0.000000    0.000000
>>>>>>> 0c29d438a49df62ff2fa5bbfa969bdc702e9668e

----------------------------
CARTESIAN COORDINATES (A.U.)
----------------------------
  NO LB      ZA    FRAG     MASS         X           Y           Z
<<<<<<< HEAD
   0 H     1.0000    0     1.008    0.000000    0.000000   -0.699199
   1 H     1.0000    0     1.008    0.000000    0.000000    0.699199
=======
   0 H     1.0000    0     1.008   -0.700521    0.000000    0.000000
   1 H     1.0000    0     1.008    0.700521    0.000000    0.000000
>>>>>>> 0c29d438a49df62ff2fa5bbfa969bdc702e9668e

--------------------------------
INTERNAL COORDINATES (ANGSTROEM)
--------------------------------
 H      0   0   0     0.000000000000     0.00000000     0.00000000
<<<<<<< HEAD
 H      1   0   0     0.740000000000     0.00000000     0.00000000
=======
 H      1   0   0     0.741400000000     0.00000000     0.00000000
>>>>>>> 0c29d438a49df62ff2fa5bbfa969bdc702e9668e

---------------------------
INTERNAL COORDINATES (A.U.)
---------------------------
 H      0   0   0     0.000000000000     0.00000000     0.00000000
<<<<<<< HEAD
 H      1   0   0     1.398397339102     0.00000000     0.00000000
=======
 H      1   0   0     1.401042955689     0.00000000     0.00000000
>>>>>>> 0c29d438a49df62ff2fa5bbfa969bdc702e9668e

---------------------
BASIS SET INFORMATION
---------------------
There are 1 groups of distinct atoms

 Group   1 Type H   : 5s1p contracted to 3s1p pattern {311/1}

Atom   0H    basis set group =>   1
Atom   1H    basis set group =>   1
---------------------------------
AUXILIARY/J BASIS SET INFORMATION
---------------------------------
There are 1 groups of distinct atoms

 Group   1 Type H   : 5s2p1d contracted to 3s1p1d pattern {311/2/1}

Atom   0H    basis set group =>   1
Atom   1H    basis set group =>   1
------------------------------------------------------------------------------
                             ORCA STARTUP CALCULATIONS
                           -- RI-GTO INTEGRALS CHOSEN --
------------------------------------------------------------------------------
------------------------------------------------------------------------------
                   ___                                                        
                  /   \      - P O W E R E D   B Y -                         
                 /     \                                                     
                 |  |  |   _    _      __       _____    __    __             
                 |  |  |  | |  | |    /  \     |  _  \  |  |  /  |          
                  \  \/   | |  | |   /    \    | | | |  |  | /  /          
                 / \  \   | |__| |  /  /\  \   | |_| |  |  |/  /          
                |  |  |   |  __  | /  /__\  \  |    /   |      \           
                |  |  |   | |  | | |   __   |  |    \   |  |\   \          
                \     /   | |  | | |  |  |  |  | |\  \  |  | \   \       
                 \___/    |_|  |_| |__|  |__|  |_| \__\ |__|  \__/        
                                                                              
                      - O R C A' S   B I G   F R I E N D -                    
                                      &                                       
                       - I N T E G R A L  F E E D E R -                       
                                                                              
 v1 FN, 2020, v2 2021, v3 2022-2024                                           
------------------------------------------------------------------------------


----------------------
SHARK INTEGRAL PACKAGE
----------------------

Number of atoms                             ...      2
Number of basis functions                   ...     12
Number of shells                            ...      8
Maximum angular momentum                    ...      1
Integral batch strategy                     ... SHARK/LIBINT Hybrid
RI-J (if used) integral strategy            ... SPLIT-RIJ (Revised 2003 algorithm where possible)
Printlevel                                  ...      1
Contraction scheme used                     ... SEGMENTED contraction
Prescreening option                         ... SCHWARTZ
   Thresh                                   ... 2.500e-11
   Tcut                                     ... 2.500e-12
   Tpresel                                  ... 2.500e-12 
Coulomb Range Separation                    ... NOT USED
Exchange Range Separation                   ... NOT USED
Multipole approximations                    ... NOT USED
Finite Nucleus Model                        ... NOT USED
CABS basis                                  ... NOT available
Auxiliary Coulomb fitting basis             ... AVAILABLE
   # of basis functions in Aux-J            ...     22
   # of shells in Aux-J                     ...     10
   Maximum angular momentum in Aux-J        ...      2
Auxiliary J/K fitting basis                 ... NOT available
Auxiliary Correlation fitting basis         ... NOT available
Auxiliary 'external' fitting basis          ... NOT available

Checking pre-screening integrals            ... done (  0.0 sec) Dimension = 8
<<<<<<< HEAD
   => SHARK Basis and OBASIS are compatible. Storing Pre-screening
=======
Check shell pair data                       ... done (  0.0 sec)
>>>>>>> 0c29d438a49df62ff2fa5bbfa969bdc702e9668e
Shell pair information
Shell pair cut-off parameter TPreSel        ...   2.5e-12
Total number of shell pairs                 ...        36
Shell pairs after pre-screening             ...        36
Total number of primitive shell pairs       ...        84
Primitive shell pairs kept                  ...        83
          la=0 lb=0:     21 shell pairs
          la=1 lb=0:     12 shell pairs
          la=1 lb=1:      3 shell pairs

<<<<<<< HEAD
Checking whether 4 symmetric matrices of dimension 12 fit in memory
:Max Core in MB      =   4096.00
 MB in use           =      1.19
 MB left             =   4094.81
 MB needed           =      0.00
 Data fit in memory  = YES
Calculating RI/J V-Matrix + Cholesky decomp.... done (  0.0 sec)
Calculating Nuclear repulsion               ... done (  0.0 sec) ENN=      0.715104335541 Eh

Diagonalization of the overlap matrix:
Smallest eigenvalue                        ... 1.641e-02
=======
Calculating one electron integrals          ... done (  0.0 sec)
Calculating RI/J V-Matrix + Cholesky decomp.... done (  0.0 sec)
Calculating Nuclear repulsion               ... done (  0.0 sec) ENN=      0.713753990154 Eh

Diagonalization of the overlap matrix:
Smallest eigenvalue                        ... 1.650e-02
>>>>>>> 0c29d438a49df62ff2fa5bbfa969bdc702e9668e
Time for diagonalization                   ...    0.000 sec
Threshold for overlap eigenvalues          ... 1.000e-07
Number of eigenvalues below threshold      ... 0
Time for construction of square roots      ...    0.000 sec
Total time needed                          ...    0.001 sec

-------------------
DFT GRID GENERATION
-------------------

General Integration Accuracy     IntAcc      ... 4.388
Radial Grid Type                 RadialGrid  ... OptM3 with GC (2021)
Angular Grid (max. ang.)         AngularGrid ... 4 (Lebedev-302)
Angular grid pruning method      GridPruning ... 4 (adaptive)
Weight generation scheme         WeightScheme... mBecke (2022)
Basis function cutoff            BFCut       ... 1.0000e-11
Integration weight cutoff        WCut        ... 1.0000e-14
Partially contracted basis set               ... off
Rotationally invariant grid construction     ... off
Angular grids for H and He will be reduced by one unit

Total number of grid points                  ...     6648
Total number of batches                      ...      104
Average number of points per batch           ...       63
Average number of grid points per atom       ...     3324

--------------------
COSX GRID GENERATION
--------------------

GRIDX 1
-------
General Integration Accuracy     IntAcc      ... 3.816
Radial Grid Type                 RadialGrid  ... OptM3 with GC (2021)
Angular Grid (max. ang.)         AngularGrid ... 1 (Lebedev-50)
Angular grid pruning method      GridPruning ... 4 (adaptive)
Weight generation scheme         WeightScheme... mBecke (2022)
Basis function cutoff            BFCut       ... 1.0000e-11
Integration weight cutoff        WCut        ... 1.0000e-14
Partially contracted basis set               ... on
Rotationally invariant grid construction     ... off
Angular grids for H and He will be reduced by one unit

Total number of grid points                  ...      884
Total number of batches                      ...        8
Average number of points per batch           ...      110
Average number of grid points per atom       ...      442
UseSFitting                                  ... on

GRIDX 2
-------
General Integration Accuracy     IntAcc      ... 4.020
Radial Grid Type                 RadialGrid  ... OptM3 with GC (2021)
Angular Grid (max. ang.)         AngularGrid ... 2 (Lebedev-110)
Angular grid pruning method      GridPruning ... 4 (adaptive)
Weight generation scheme         WeightScheme... mBecke (2022)
Basis function cutoff            BFCut       ... 1.0000e-11
Integration weight cutoff        WCut        ... 1.0000e-14
Partially contracted basis set               ... on
Rotationally invariant grid construction     ... off
Angular grids for H and He will be reduced by one unit

Total number of grid points                  ...     1622
Total number of batches                      ...       14
Average number of points per batch           ...      115
Average number of grid points per atom       ...      811
UseSFitting                                  ... on

GRIDX 3
-------
General Integration Accuracy     IntAcc      ... 4.338
Radial Grid Type                 RadialGrid  ... OptM3 with GC (2021)
Angular Grid (max. ang.)         AngularGrid ... 3 (Lebedev-194)
Angular grid pruning method      GridPruning ... 4 (adaptive)
Weight generation scheme         WeightScheme... mBecke (2022)
Basis function cutoff            BFCut       ... 1.0000e-11
Integration weight cutoff        WCut        ... 1.0000e-14
Partially contracted basis set               ... on
Rotationally invariant grid construction     ... off
Angular grids for H and He will be reduced by one unit

Total number of grid points                  ...     3582
Total number of batches                      ...       28
Average number of points per batch           ...      127
Average number of grid points per atom       ...     1791
UseSFitting                                  ... on
<<<<<<< HEAD
Grids setup in   0.0 sec
Initializing property integral containers    ... done (  0.0 sec)

SHARK setup successfully completed in   0.0 seconds

Maximum memory used throughout the entire STARTUP-calculation: 4.4 MB
=======
Initializing property integral containers    ... done (  0.0 sec)

SHARK setup successfully completed in   0.1 seconds

Maximum memory used throughout the entire STARTUP-calculation: 4.3 MB
>>>>>>> 0c29d438a49df62ff2fa5bbfa969bdc702e9668e
-------------------------------------------------------------------------------
                                 ORCA GUESS
                   Start orbitals & Density for SCF / CASSCF
-------------------------------------------------------------------------------

------------
SCF SETTINGS
------------
Hamiltonian:
 Density Functional     Method          .... DFT(GTOs)
 Exchange Functional    Exchange        .... B88
   X-Alpha parameter    XAlpha          ....  0.666667
   Becke's b parameter  XBeta           ....  0.004200
 Correlation Functional Correlation     .... LYP
 LDA part of GGA corr.  LDAOpt          .... VWN-5
 Gradients option       PostSCFGGA      .... off
 Hybrid DFT is turned on
   Fraction HF Exchange ScalHFX         ....  0.200000
   Scaling of DF-GGA-X  ScalDFX         ....  0.720000
   Scaling of DF-GGA-C  ScalDFC         ....  0.810000
   Scaling of DF-LDA-C  ScalLDAC        ....  1.000000
   Perturbative correction              ....  0.000000
   NL short-range parameter             ....  4.800000
 RI-approximation to the Coulomb term is turned on
   Number of AuxJ basis functions       .... 22
   RIJ-COSX (HFX calculated with COS-X)).... on


General Settings:
 Integral files         IntName         .... h2
 Hartree-Fock type      HFTyp           .... RHF
 Total Charge           Charge          ....    0
 Multiplicity           Mult            ....    1
 Number of Electrons    NEL             ....    2
 Basis Dimension        Dim             ....   12
<<<<<<< HEAD
 Nuclear Repulsion      ENuc            ....      0.7151043355 Eh
=======
 Nuclear Repulsion      ENuc            ....      0.7137539902 Eh
>>>>>>> 0c29d438a49df62ff2fa5bbfa969bdc702e9668e

Convergence Acceleration:
 AO-DIIS                CNVDIIS         .... on
   Start iteration      DIISMaxIt       ....    12
   Startup error        DIISStart       ....  0.200000
   # of expansion vecs  DIISMaxEq       ....     5
   Bias factor          DIISBfac        ....   1.050
   Max. coefficient     DIISMaxC        ....  10.000
 MO-DIIS                CNVKDIIS        .... off
 Trust-Rad. Augm. Hess. CNVTRAH         .... auto
   Auto Start mean grad. ratio tolernc. ....  1.125000
   Auto Start start iteration           ....    50
   Auto Start num. interpolation iter.  ....    10
   Max. Number of Micro iterations      ....    24
   Max. Number of Macro iterations      .... Maxiter - #DIIS iter
   Number of Davidson start vectors     ....     2
   Converg. threshold    (grad. norm)   ....   1.000e-05
   Grad. Scal. Fac. for Micro threshold ....   0.100
   Minimum threshold for Micro iter.    ....   1.000e-02
   NR start threshold (gradient norm)   ....   1.000e-04
   Initial trust radius                 ....   0.400
   Minimum AH scaling param. (alpha)    ....   1.000
   Maximum AH scaling param. (alpha)    .... 1000.000
   Quad. conv. algorithm                .... NR
   White noise on init. David. guess    .... on
   Maximum white noise                  ....   0.010
   Pseudo random numbers                .... off
   Inactive MOs                         .... canonical
   Orbital update algorithm             .... Taylor
   Preconditioner                       .... Diag
   Full preconditioner red. dimension   ....   250
<<<<<<< HEAD
 SOSCF                 CNVSOSCF           .... on
   Start iteration     SOSCFMaxIt         ....   150
   Startup grad/error  SOSCFStart         ....  0.003300
   Hessian update      SOSCFHessUp        .... L-BFGS
   Autom. constraints  SOSCFAutoConstrain .... off
=======
 SOSCF                  CNVSOSCF        .... on
   Start iteration      SOSCFMaxIt      ....   150
   Startup grad/error   SOSCFStart      ....  0.003300
   Hessian update       SOSCFHessUp     .... L-BFGS
>>>>>>> 0c29d438a49df62ff2fa5bbfa969bdc702e9668e
 Level Shifting         CNVShift        .... on
   Level shift para.    LevelShift      ....    0.2500
   Turn off err/grad.   ShiftErr        ....    0.0010
 Zerner damping         CNVZerner       .... off
 Static damping         CNVDamp         .... on
   Fraction old density DampFac         ....    0.7000
   Max. Damping (<1)    DampMax         ....    0.9800
   Min. Damping (>=0)   DampMin         ....    0.0000
   Turn off err/grad.   DampErr         ....    0.1000

SCF Procedure:
 Maximum # iterations   MaxIter         ....   125
 SCF integral mode      SCFMode         .... Direct
   Integral package                     .... SHARK and LIBINT hybrid scheme
 Reset frequency        DirectResetFreq ....    20
 Integral Threshold     Thresh          ....  2.500e-11 Eh
 Primitive CutOff       TCut            ....  2.500e-12 Eh

Convergence Tolerance:
 Convergence Check Mode ConvCheckMode   .... Total+1el-Energy
 Convergence forced     ConvForced      .... 0
 Energy Change          TolE            ....  1.000e-08 Eh
 1-El. energy change                    ....  1.000e-05 Eh
 Orbital Gradient       TolG            ....  1.000e-05
 Orbital Rotation angle TolX            ....  1.000e-05
 DIIS Error             TolErr          ....  5.000e-07

------------------------------
INITIAL GUESS: MODEL POTENTIAL
------------------------------
Loading Hartree-Fock densities                     ... done
Calculating cut-offs                               ... done
Initializing the effective Hamiltonian             ... done
Setting up the integral package (SHARK)            ... done
Starting the Coulomb interaction                   ... done (   0.0 sec)
Making the grid                                    ... done (   0.0 sec)
Mapping shells                                     ... done
Starting the XC term evaluation                    ... done (   0.0 sec)
  promolecular density results
<<<<<<< HEAD
     # of electrons  =      1.998985868
     EX              =     -0.566334905
     EC              =     -0.036293518
     EX+EC           =     -0.602628423
=======
     # of electrons  =      1.998984196
     EX              =     -0.566217656
     EC              =     -0.036285712
     EX+EC           =     -0.602503368
>>>>>>> 0c29d438a49df62ff2fa5bbfa969bdc702e9668e
Transforming the Hamiltonian                       ... done (   0.0 sec)
Diagonalizing the Hamiltonian                      ... done (   0.0 sec)
Back transforming the eigenvectors                 ... done (   0.0 sec)
Now organizing SCF variables                       ... done
                      ------------------
                      INITIAL GUESS DONE (   0.0 sec)
                      ------------------
             **** ENERGY FILE WAS UPDATED (h2.en.tmp) ****
Finished Guess after   0.0 sec
<<<<<<< HEAD
Maximum memory used throughout the entire GUESS-calculation: 2.5 MB
=======
Maximum memory used throughout the entire GUESS-calculation: 2.4 MB
>>>>>>> 0c29d438a49df62ff2fa5bbfa969bdc702e9668e

-------------------------------------------------------------------------------------------
                                      ORCA LEAN-SCF
                              memory conserving SCF solver
-------------------------------------------------------------------------------------------

----------------------------------------D-I-I-S--------------------------------------------
Iteration    Energy (Eh)           Delta-E    RMSDP     MaxDP     DIISErr   Damp  Time(sec)
-------------------------------------------------------------------------------------------
               ***  Starting incremental Fock matrix formation  ***
<<<<<<< HEAD
    1     -1.1679799520990859     0.00e+00  1.83e-03  4.59e-03  7.15e-02  0.700   0.0
    2     -1.1695881472860916    -1.61e-03  1.77e-03  3.94e-03  5.14e-02  0.700   0.0
                               ***Turning on AO-DIIS***
    3     -1.1706864704724926    -1.10e-03  1.18e-03  2.62e-03  3.41e-02  0.700   0.0
    4     -1.1713971682809750    -7.11e-04  2.62e-03  5.80e-03  2.33e-02  0.000   0.0
=======
    1     -1.1680148621463811     0.00e+00  1.83e-03  4.57e-03  7.12e-02  0.700   0.0
    2     -1.1696136493578266    -1.60e-03  1.76e-03  3.94e-03  5.12e-02  0.700   0.0
                               ***Turning on AO-DIIS***
    3     -1.1707057119214763    -1.09e-03  1.18e-03  2.62e-03  3.40e-02  0.700   0.0
    4     -1.1714124043224008    -7.07e-04  2.62e-03  5.80e-03  2.33e-02  0.000   0.0
>>>>>>> 0c29d438a49df62ff2fa5bbfa969bdc702e9668e
                              *** Initializing SOSCF ***
---------------------------------------S-O-S-C-F--------------------------------------
Iteration    Energy (Eh)           Delta-E    RMSDP     MaxDP     MaxGrad    Time(sec)
--------------------------------------------------------------------------------------
<<<<<<< HEAD
    5     -1.1729123465944407    -1.52e-03  6.19e-05  1.62e-04  6.84e-04     0.0
               *** Restarting incremental Fock matrix formation ***
    6     -1.1729139925392722    -1.65e-06  3.58e-05  1.22e-04  1.18e-04     0.0
    7     -1.1729140312600361    -3.87e-08  3.70e-06  9.05e-06  2.26e-05     0.0
    8     -1.1729140328870884    -1.63e-09  7.58e-08  3.14e-07  3.90e-07     0.0
=======
    5     -1.1729191056530721    -1.51e-03  6.18e-05  1.62e-04  6.81e-04     0.0
               *** Restarting incremental Fock matrix formation ***
    6     -1.1729207262085246    -1.62e-06  3.57e-05  1.22e-04  1.17e-04     0.0
    7     -1.1729207646887423    -3.85e-08  3.69e-06  9.04e-06  2.25e-05     0.0
    8     -1.1729207663190500    -1.63e-09  7.56e-08  3.14e-07  3.90e-07     0.0
>>>>>>> 0c29d438a49df62ff2fa5bbfa969bdc702e9668e
                 **** Energy Check signals convergence ****

               *****************************************************
               *                     SUCCESS                       *
               *           SCF CONVERGED AFTER   8 CYCLES          *
               *****************************************************

<<<<<<< HEAD
Recomputing exchange energy using gridx3       ... done (    0.013 sec)
Old exchange energy                            :     -0.131520677 Eh
New exchange energy                            :     -0.131521814 Eh
Exchange energy change after final integration :     -0.000001136 Eh
Total energy after final integration           :     -1.172915170 Eh
=======
Recomputing exchange energy using gridx3       ... done (    0.014 sec)
Old exchange energy                            :     -0.131424187 Eh
New exchange energy                            :     -0.131425327 Eh
Exchange energy change after final integration :     -0.000001140 Eh
Total energy after final integration           :     -1.172921906 Eh
>>>>>>> 0c29d438a49df62ff2fa5bbfa969bdc702e9668e
             **** ENERGY FILE WAS UPDATED (h2.en.tmp) ****

----------------
TOTAL SCF ENERGY
----------------

<<<<<<< HEAD
Total Energy       :         -1.17291516955508 Eh             -31.91664 eV

Components:
Nuclear Repulsion  :          0.71510433554054 Eh              19.45898 eV
Electronic Energy  :         -1.88801836863760 Eh             -51.37559 eV
One Electron Energy:         -2.50448686393498 Eh             -68.15055 eV
Two Electron Energy:          0.61646849529739 Eh              16.77496 eV

Virial components:
Potential Energy   :         -2.31345991400650 Eh             -62.95244 eV
Kinetic Energy     :          1.14054474445142 Eh              31.03580 eV
Virial Ratio       :          2.02838154773072

DFT components:
N(Alpha)           :        1.000000329400 electrons
N(Beta)            :        1.000000329400 electrons
N(Total)           :        2.000000658800 electrons
E(X)               :       -0.518156003523 Eh       
E(C)               :       -0.048958695270 Eh       
E(XC)              :       -0.567114698792 Eh       
=======
Total Energy       :         -1.17292190590009 Eh             -31.91683 eV

Components:
Nuclear Repulsion  :          0.71375399015376 Eh              19.42223 eV
Electronic Energy  :         -1.88667475647281 Eh             -51.33903 eV
One Electron Energy:         -2.50264240373173 Eh             -68.10036 eV
Two Electron Energy:          0.61596764725892 Eh              16.76133 eV

Virial components:
Potential Energy   :         -2.31211796202736 Eh             -62.91593 eV
Kinetic Energy     :          1.13919605612727 Eh              30.99910 eV
Virial Ratio       :          2.02960495657567

DFT components:
N(Alpha)           :        1.000000328607 electrons
N(Beta)            :        1.000000328607 electrons
N(Total)           :        2.000000657214 electrons
E(X)               :       -0.517803333611 Eh       
E(C)               :       -0.048944307231 Eh       
E(XC)              :       -0.566747640842 Eh       
>>>>>>> 0c29d438a49df62ff2fa5bbfa969bdc702e9668e

---------------
SCF CONVERGENCE
---------------

<<<<<<< HEAD
  Last Energy change         ...    1.6271e-09  Tolerance :   1.0000e-08
  Last MAX-Density change    ...    3.1442e-07  Tolerance :   1.0000e-07
  Last RMS-Density change    ...    7.5770e-08  Tolerance :   5.0000e-09
  Last DIIS Error            ...    6.8414e-04  Tolerance :   5.0000e-07
  Last Orbital Gradient      ...    3.9027e-07  Tolerance :   1.0000e-05
  Last Orbital Rotation      ...    1.4075e-07  Tolerance :   1.0000e-05
=======
  Last Energy change         ...    1.6303e-09  Tolerance :   1.0000e-08
  Last MAX-Density change    ...    3.1392e-07  Tolerance :   1.0000e-07
  Last RMS-Density change    ...    7.5638e-08  Tolerance :   5.0000e-09
  Last DIIS Error            ...    6.8123e-04  Tolerance :   5.0000e-07
  Last Orbital Gradient      ...    3.8995e-07  Tolerance :   1.0000e-05
  Last Orbital Rotation      ...    1.4064e-07  Tolerance :   1.0000e-05
>>>>>>> 0c29d438a49df62ff2fa5bbfa969bdc702e9668e


----------------
ORBITAL ENERGIES
----------------

  NO   OCC          E(Eh)            E(eV) 
<<<<<<< HEAD
   0   2.0000      -0.431366       -11.7381 
   1   0.0000       0.059897         1.6299 
   2   0.0000       0.199395         5.4258 
   3   0.0000       0.474424        12.9097 
   4   0.0000       1.088530        29.6204 
   5   0.0000       1.088530        29.6204 
   6   0.0000       1.555818        42.3360 
   7   0.0000       1.833490        49.8918 
   8   0.0000       1.833490        49.8918 
   9   0.0000       1.943723        52.8914 
  10   0.0000       2.382017        64.8180 
  11   0.0000       3.336399        90.7880 
=======
   0   2.0000      -0.431076       -11.7302 
   1   0.0000       0.059630         1.6226 
   2   0.0000       0.199482         5.4282 
   3   0.0000       0.473932        12.8964 
   4   0.0000       1.088430        29.6177 
   5   0.0000       1.088430        29.6177 
   6   0.0000       1.555115        42.3168 
   7   0.0000       1.832525        49.8655 
   8   0.0000       1.832525        49.8655 
   9   0.0000       1.945795        52.9478 
  10   0.0000       2.382042        64.8186 
  11   0.0000       3.328922        90.5846 
>>>>>>> 0c29d438a49df62ff2fa5bbfa969bdc702e9668e
*Only the first 10 virtual orbitals were printed.

                    ********************************
                    * MULLIKEN POPULATION ANALYSIS *
                    ********************************

-----------------------
MULLIKEN ATOMIC CHARGES
-----------------------
   0 H :   -0.000000
   1 H :    0.000000
Sum of atomic charges:   -0.0000000

--------------------------------
MULLIKEN REDUCED ORBITAL CHARGES
--------------------------------
<<<<<<< HEAD
  0 H s       :     0.989800  s :     0.989800
      pz      :     0.010200  p :     0.010200
      px      :     0.000000
      py      :     0.000000

  1 H s       :     0.989800  s :     0.989800
      pz      :     0.010200  p :     0.010200
      px      :     0.000000
=======
  0 H s       :     0.989806  s :     0.989806
      pz      :     0.000000  p :     0.010194
      px      :     0.010194
      py      :     0.000000

  1 H s       :     0.989806  s :     0.989806
      pz      :     0.000000  p :     0.010194
      px      :     0.010194
>>>>>>> 0c29d438a49df62ff2fa5bbfa969bdc702e9668e
      py      :     0.000000



                     *******************************
                     * LOEWDIN POPULATION ANALYSIS *
                     *******************************

----------------------
LOEWDIN ATOMIC CHARGES
----------------------
   0 H :   -0.000000
   1 H :    0.000000

-------------------------------
LOEWDIN REDUCED ORBITAL CHARGES
-------------------------------
<<<<<<< HEAD
  0 H s       :     0.977441  s :     0.977441
      pz      :     0.022559  p :     0.022559
      px      :     0.000000
      py      :     0.000000

  1 H s       :     0.977441  s :     0.977441
      pz      :     0.022559  p :     0.022559
      px      :     0.000000
=======
  0 H s       :     0.977472  s :     0.977472
      pz      :     0.000000  p :     0.022528
      px      :     0.022528
      py      :     0.000000

  1 H s       :     0.977472  s :     0.977472
      pz      :     0.000000  p :     0.022528
      px      :     0.022528
>>>>>>> 0c29d438a49df62ff2fa5bbfa969bdc702e9668e
      py      :     0.000000



                      *****************************
                      * MAYER POPULATION ANALYSIS *
                      *****************************

  NA   - Mulliken gross atomic population
  ZA   - Total nuclear charge
  QA   - Mulliken gross atomic charge
  VA   - Mayer's total valence
  BVA  - Mayer's bonded valence
  FA   - Mayer's free valence

  ATOM       NA         ZA         QA         VA         BVA        FA
  0 H      1.0000     1.0000    -0.0000     1.0000     1.0000    -0.0000
  1 H      1.0000     1.0000     0.0000     1.0000     1.0000    -0.0000

  Mayer bond orders larger than 0.100000
B(  0-H ,  1-H ) :   1.0000 

-------
TIMINGS
-------

Total SCF time: 0 days 0 hours 0 min 0 sec 

<<<<<<< HEAD
Total time                  ....       0.245 sec
Sum of individual times     ....       0.217 sec  ( 88.6%)

SCF preparation             ....       0.030 sec  ( 12.5%)
Fock matrix formation       ....       0.170 sec  ( 69.4%)
  Startup                   ....       0.000 sec  (  0.2% of F)
  Split-RI-J                ....       0.006 sec  (  3.7% of F)
  Chain of spheres X        ....       0.102 sec  ( 60.0% of F)
  XC integration            ....       0.064 sec  ( 37.8% of F)
    XC Preparation          ....       0.000 sec  (  0.0% of XC)
    Basis function eval.    ....       0.018 sec  ( 28.4% of XC)
    Density eval.           ....       0.007 sec  ( 10.6% of XC)
    XC-Functional eval.     ....       0.023 sec  ( 35.6% of XC)
    XC-Potential eval.      ....       0.004 sec  (  6.7% of XC)
Diagonalization             ....       0.000 sec  (  0.0%)
Density matrix formation    ....       0.002 sec  (  0.7%)
Total Energy calculation    ....       0.000 sec  (  0.1%)
Population analysis         ....       0.001 sec  (  0.4%)
Orbital Transformation      ....       0.007 sec  (  2.8%)
Orbital Orthonormalization  ....       0.000 sec  (  0.0%)
DIIS solution               ....       0.002 sec  (  0.8%)
SOSCF solution              ....       0.005 sec  (  2.0%)
Finished LeanSCF after   0.3 sec

Maximum memory used throughout the entire LEANSCF-calculation: 2.2 MB

-------------------------   --------------------
FINAL SINGLE POINT ENERGY        -1.172915169555
=======
Total time                  ....       0.221 sec
Sum of individual times     ....       0.208 sec  ( 93.9%)

SCF preparation             ....       0.042 sec  ( 18.8%)
Fock matrix formation       ....       0.156 sec  ( 70.5%)
  Startup                   ....       0.001 sec  (  0.3% of F)
  Split-RI-J                ....       0.002 sec  (  1.5% of F)
  Chain of spheres X        ....       0.088 sec  ( 56.1% of F)
  XC integration            ....       0.060 sec  ( 38.7% of F)
    Basis function eval.    ....       0.021 sec  ( 35.2% of XC)
    Density eval.           ....       0.007 sec  ( 10.9% of XC)
    XC-Functional eval.     ....       0.019 sec  ( 31.5% of XC)
    XC-Potential eval.      ....       0.004 sec  (  5.9% of XC)
Diagonalization             ....       0.000 sec  (  0.0%)
Density matrix formation    ....       0.003 sec  (  1.5%)
Total Energy calculation    ....       0.000 sec  (  0.1%)
Population analysis         ....       0.001 sec  (  0.5%)
Orbital Transformation      ....       0.002 sec  (  0.8%)
Orbital Orthonormalization  ....       0.000 sec  (  0.0%)
DIIS solution               ....       0.003 sec  (  1.1%)
SOSCF solution              ....       0.001 sec  (  0.6%)
Finished LeanSCF after   0.2 sec

Maximum memory used throughout the entire LEANSCF-calculation: 2.1 MB

-------------------------   --------------------
FINAL SINGLE POINT ENERGY        -1.172921905900
>>>>>>> 0c29d438a49df62ff2fa5bbfa969bdc702e9668e
-------------------------   --------------------

------------------------------------------------------------------------------
                         ORCA SCF GRADIENT CALCULATION
------------------------------------------------------------------------------

Nuc. rep. gradient        (SHARK) ... done (  0.0 sec)
HCore & Overlap gradient  (SHARK) ... done (  0.0 sec)
Split-RIJ-J gradient      (SHARK) ... done (  0.0 sec)
<<<<<<< HEAD
done (  0.1 sec)
=======
COSX-gradient                     ... done (  0.1 sec)
>>>>>>> 0c29d438a49df62ff2fa5bbfa969bdc702e9668e
XC gradient                       ... done (  0.0 sec)

------------------
CARTESIAN GRADIENT
------------------

<<<<<<< HEAD
   1   H   :    0.000000005   -0.000000000    0.003052826
   2   H   :   -0.000000005    0.000000000   -0.003052826

Difference to translation invariance:
           :   -0.0000000000   -0.0000000000    0.0000000000

Difference to rotation invariance:
           :   -0.0000000005   -0.0000000065    0.0000000000

Norm of the Cartesian gradient     ...    0.0043173473
RMS gradient                       ...    0.0017625496
MAX gradient                       ...    0.0030528255
=======
   1   H   :    0.002045382    0.000000003    0.000000001
   2   H   :   -0.002045382   -0.000000003   -0.000000001

Difference to translation invariance:
           :    0.0000000000    0.0000000000   -0.0000000000

Difference to rotation invariance:
           :    0.0000000000    0.0000000016   -0.0000000039

Norm of the Cartesian gradient     ...    0.0028926071
RMS gradient                       ...    0.0011809019
MAX gradient                       ...    0.0020453821
>>>>>>> 0c29d438a49df62ff2fa5bbfa969bdc702e9668e

-------
TIMINGS
-------

<<<<<<< HEAD
Total SCF gradient time     ....        0.136 sec

Densities                   ....       0.000 sec  (  0.0%)
One electron gradient       ....       0.001 sec  (  1.0%)
RI-J Coulomb gradient       ....       0.047 sec  ( 34.6%)
COSX gradient               ....       0.065 sec  ( 48.0%)
XC gradient                 ....       0.022 sec  ( 16.3%)

Maximum memory used throughout the entire SCFGRAD-calculation: 3.3 MB
=======
Total SCF gradient time     ....        0.114 sec

Densities                   ....       0.000 sec  (  0.0%)
One electron gradient       ....       0.001 sec  (  1.2%)
RI-J Coulomb gradient       ....       0.031 sec  ( 27.1%)
COSX gradient               ....       0.060 sec  ( 52.3%)
XC gradient                 ....       0.022 sec  ( 19.3%)

Maximum memory used throughout the entire SCFGRAD-calculation: 3.0 MB
>>>>>>> 0c29d438a49df62ff2fa5bbfa969bdc702e9668e
------------------------------------------------------------------------------
                         ORCA GEOMETRY RELAXATION STEP
------------------------------------------------------------------------------

Reading the OPT-File                    .... done
Getting information on internals        .... done
Copying old internal coords+grads       .... done
Making the new internal coordinates     .... (2022 redundants) done
Validating the new internal coordinates .... (2022 redundants) done
Calculating the B-matrix                .... done
Calculating the G,G- and P matrices     .... done
Transforming gradient to internals      .... done
Projecting the internal gradient        .... done
Number of atoms                         ....   2
Number of internal coordinates          ....   1
<<<<<<< HEAD
Current Energy                          ....    -1.172915170 Eh
Current gradient norm                   ....     0.004317347 Eh/bohr
=======
Current Energy                          ....    -1.172921906 Eh
Current gradient norm                   ....     0.002892607 Eh/bohr
>>>>>>> 0c29d438a49df62ff2fa5bbfa969bdc702e9668e
Maximum allowed component of the step   ....  0.300
Current trust radius                    ....  0.300
Evaluating the initial hessian          ....  (Almloef) done
Projecting the Hessian                  .... done
Forming the augmented Hessian           .... done
Diagonalizing the augmented Hessian     .... done
<<<<<<< HEAD
Last element of RFO vector              ....  0.999925108
Lowest eigenvalues of augmented Hessian:
 -0.000037365
Length of the computed step             ....  0.012239324
The final length of the internal step   ....  0.012239324
Converting the step to Cartesian space:
 Initial RMS(Int)=    0.0122393237
Transforming coordinates:
 Iter   0:  RMS(Cart)=    0.0035331884 RMS(Int)=    0.0122393237
=======
Last element of RFO vector              ....  0.999966026
Lowest eigenvalues of augmented Hessian:
 -0.000016861
Length of the computed step             ....  0.008243261
The final length of the internal step   ....  0.008243261
Converting the step to Cartesian space:
 Initial RMS(Int)=    0.0082432608
Transforming coordinates:
 Iter   0:  RMS(Cart)=    0.0023796244 RMS(Int)=    0.0082432608
>>>>>>> 0c29d438a49df62ff2fa5bbfa969bdc702e9668e
done
Storing new coordinates                 .... done

                                .--------------------.
          ----------------------|Geometry convergence|-------------------------
          Item                value                   Tolerance       Converged
          ---------------------------------------------------------------------
<<<<<<< HEAD
          RMS gradient        0.0030528255            0.0001000000      NO
          MAX gradient        0.0030528255            0.0003000000      NO
          RMS step            0.0122393237            0.0020000000      NO
          MAX step            0.0122393237            0.0040000000      NO
          -------------------------------------------------------------------------
          ........................................................
          Max(Bonds)      0.0065      Max(Angles)    0.00
=======
          RMS gradient        0.0020453821            0.0001000000      NO
          MAX gradient        0.0020453821            0.0003000000      NO
          RMS step            0.0082432608            0.0020000000      NO
          MAX step            0.0082432608            0.0040000000      NO
          ........................................................
          Max(Bonds)      0.0044      Max(Angles)    0.00
>>>>>>> 0c29d438a49df62ff2fa5bbfa969bdc702e9668e
          Max(Dihed)        0.00      Max(Improp)    0.00
          ---------------------------------------------------------------------

The optimization has not yet converged - more geometry cycles are needed


    ---------------------------------------------------------------------------
                         Redundant Internal Coordinates
                            (Angstroem and degrees)

        Definition                    Value    dE/dq     Step     New-Value
    ----------------------------------------------------------------------------
<<<<<<< HEAD
     1. B(H   1,H   0)                0.7400 -0.003053  0.0065    0.7465   
    ----------------------------------------------------------------------------

Geometry step timings:
Preparation and reading OPT file:      0.000 s ( 5.556 %)
Internal coordinates            :      0.000 s ( 6.250 %)
B/P matrices and projection     :      0.000 s (14.815 %)
Hessian update/contruction      :      0.000 s (20.370 %)
Making the step                 :      0.000 s (13.657 %)
Converting the step to Cartesian:      0.000 s ( 6.481 %)
Storing new data                :      0.000 s ( 6.713 %)
Checking convergence            :      0.000 s (10.185 %)
Final printing                  :      0.000 s (15.972 %)
Total time                      :      0.000 s

Time for energy+gradient        :      0.544 s
Time for complete geometry iter :      0.560 s
=======
     1. B(H   1,H   0)                0.7414 -0.002045  0.0044    0.7458   
    ----------------------------------------------------------------------------

Geometry step timings:
Preparation and reading OPT file:      0.000 s (12.212 %)
Internal coordinates            :      0.000 s ( 5.706 %)
B/P matrices and projection     :      0.000 s (12.713 %)
Hessian update/contruction      :      0.000 s (22.623 %)
Making the step                 :      0.000 s (10.711 %)
Converting the step to Cartesian:      0.000 s ( 5.305 %)
Storing new data                :      0.000 s ( 4.404 %)
Checking convergence            :      0.000 s ( 0.100 %)
Final printing                  :      0.000 s (25.826 %)
Total time                      :      0.001 s

Time for energy+gradient        :      0.527 s
Time for complete geometry iter :      0.555 s
>>>>>>> 0c29d438a49df62ff2fa5bbfa969bdc702e9668e

         *************************************************************
         *                GEOMETRY OPTIMIZATION CYCLE   2            *
         *************************************************************
---------------------------------
CARTESIAN COORDINATES (ANGSTROEM)
---------------------------------
<<<<<<< HEAD
  H      0.000000    0.000000   -0.373238
  H      0.000000    0.000000    0.373238
=======
  H     -0.372881    0.000000    0.000000
  H      0.372881    0.000000    0.000000
>>>>>>> 0c29d438a49df62ff2fa5bbfa969bdc702e9668e

----------------------------
CARTESIAN COORDINATES (A.U.)
----------------------------
  NO LB      ZA    FRAG     MASS         X           Y           Z
<<<<<<< HEAD
   0 H     1.0000    0     1.008    0.000000    0.000000   -0.705318
   1 H     1.0000    0     1.008    0.000000    0.000000    0.705318
=======
   0 H     1.0000    0     1.008   -0.704643    0.000000    0.000000
   1 H     1.0000    0     1.008    0.704643    0.000000    0.000000
>>>>>>> 0c29d438a49df62ff2fa5bbfa969bdc702e9668e

--------------------------------
INTERNAL COORDINATES (ANGSTROEM)
--------------------------------
 H      0   0   0     0.000000000000     0.00000000     0.00000000
<<<<<<< HEAD
 H      1   0   0     0.746476771124     0.00000000     0.00000000
=======
 H      1   0   0     0.745762145755     0.00000000     0.00000000
>>>>>>> 0c29d438a49df62ff2fa5bbfa969bdc702e9668e

---------------------------
INTERNAL COORDINATES (A.U.)
---------------------------
 H      0   0   0     0.000000000000     0.00000000     0.00000000
<<<<<<< HEAD
 H      1   0   0     1.410636662757     0.00000000     0.00000000
=======
 H      1   0   0     1.409286216522     0.00000000     0.00000000
>>>>>>> 0c29d438a49df62ff2fa5bbfa969bdc702e9668e

------------------------------------------------------------------------------
                   ___                                                        
                  /   \      - P O W E R E D   B Y -                         
                 /     \                                                     
                 |  |  |   _    _      __       _____    __    __             
                 |  |  |  | |  | |    /  \     |  _  \  |  |  /  |          
                  \  \/   | |  | |   /    \    | | | |  |  | /  /          
                 / \  \   | |__| |  /  /\  \   | |_| |  |  |/  /          
                |  |  |   |  __  | /  /__\  \  |    /   |      \           
                |  |  |   | |  | | |   __   |  |    \   |  |\   \          
                \     /   | |  | | |  |  |  |  | |\  \  |  | \   \       
                 \___/    |_|  |_| |__|  |__|  |_| \__\ |__|  \__/        
                                                                              
                      - O R C A' S   B I G   F R I E N D -                    
                                      &                                       
                       - I N T E G R A L  F E E D E R -                       
                                                                              
 v1 FN, 2020, v2 2021, v3 2022-2024                                           
------------------------------------------------------------------------------


----------------------
SHARK INTEGRAL PACKAGE
----------------------

Number of atoms                             ...      2
Number of basis functions                   ...     12
Number of shells                            ...      8
Maximum angular momentum                    ...      1
Integral batch strategy                     ... SHARK/LIBINT Hybrid
RI-J (if used) integral strategy            ... SPLIT-RIJ (Revised 2003 algorithm where possible)
Printlevel                                  ...      1
Contraction scheme used                     ... SEGMENTED contraction
Prescreening option                         ... SCHWARTZ
   Thresh                                   ... 2.500e-11
   Tcut                                     ... 2.500e-12
   Tpresel                                  ... 2.500e-12 
Coulomb Range Separation                    ... NOT USED
Exchange Range Separation                   ... NOT USED
Multipole approximations                    ... NOT USED
Finite Nucleus Model                        ... NOT USED
CABS basis                                  ... NOT available
Auxiliary Coulomb fitting basis             ... AVAILABLE
   # of basis functions in Aux-J            ...     22
   # of shells in Aux-J                     ...     10
   Maximum angular momentum in Aux-J        ...      2
Auxiliary J/K fitting basis                 ... NOT available
Auxiliary Correlation fitting basis         ... NOT available
Auxiliary 'external' fitting basis          ... NOT available

Checking pre-screening integrals            ... done (  0.0 sec) Dimension = 8
<<<<<<< HEAD
   => SHARK Basis and OBASIS are compatible. Storing Pre-screening
=======
Check shell pair data                       ... done (  0.0 sec)
>>>>>>> 0c29d438a49df62ff2fa5bbfa969bdc702e9668e
Shell pair information
Shell pair cut-off parameter TPreSel        ...   2.5e-12
Total number of shell pairs                 ...        36
Shell pairs after pre-screening             ...        36
Total number of primitive shell pairs       ...        84
Primitive shell pairs kept                  ...        83
          la=0 lb=0:     21 shell pairs
          la=1 lb=0:     12 shell pairs
          la=1 lb=1:      3 shell pairs

<<<<<<< HEAD
Checking whether 4 symmetric matrices of dimension 12 fit in memory
:Max Core in MB      =   4096.00
 MB in use           =      1.19
 MB left             =   4094.81
 MB needed           =      0.00
 Data fit in memory  = YES
Calculating RI/J V-Matrix + Cholesky decomp.... done (  0.0 sec)
Calculating Nuclear repulsion               ... done (  0.0 sec) ENN=      0.708899765901 Eh

Diagonalization of the overlap matrix:
Smallest eigenvalue                        ... 1.682e-02
=======
Calculating one electron integrals          ... done (  0.0 sec)
Calculating RI/J V-Matrix + Cholesky decomp.... done (  0.0 sec)
Calculating Nuclear repulsion               ... done (  0.0 sec) ENN=      0.709579067954 Eh

Diagonalization of the overlap matrix:
Smallest eigenvalue                        ... 1.678e-02
>>>>>>> 0c29d438a49df62ff2fa5bbfa969bdc702e9668e
Time for diagonalization                   ...    0.000 sec
Threshold for overlap eigenvalues          ... 1.000e-07
Number of eigenvalues below threshold      ... 0
Time for construction of square roots      ...    0.000 sec
Total time needed                          ...    0.001 sec

-------------------
DFT GRID GENERATION
-------------------

General Integration Accuracy     IntAcc      ... 4.388
Radial Grid Type                 RadialGrid  ... OptM3 with GC (2021)
Angular Grid (max. ang.)         AngularGrid ... 4 (Lebedev-302)
Angular grid pruning method      GridPruning ... 4 (adaptive)
Weight generation scheme         WeightScheme... mBecke (2022)
Basis function cutoff            BFCut       ... 1.0000e-11
Integration weight cutoff        WCut        ... 1.0000e-14
Partially contracted basis set               ... off
Rotationally invariant grid construction     ... off
Angular grids for H and He will be reduced by one unit

Total number of grid points                  ...     6648
Total number of batches                      ...      104
Average number of points per batch           ...       63
Average number of grid points per atom       ...     3324

--------------------
COSX GRID GENERATION
--------------------

GRIDX 1
-------
General Integration Accuracy     IntAcc      ... 3.816
Radial Grid Type                 RadialGrid  ... OptM3 with GC (2021)
Angular Grid (max. ang.)         AngularGrid ... 1 (Lebedev-50)
Angular grid pruning method      GridPruning ... 4 (adaptive)
Weight generation scheme         WeightScheme... mBecke (2022)
Basis function cutoff            BFCut       ... 1.0000e-11
Integration weight cutoff        WCut        ... 1.0000e-14
Partially contracted basis set               ... on
Rotationally invariant grid construction     ... off
Angular grids for H and He will be reduced by one unit

Total number of grid points                  ...      884
Total number of batches                      ...        8
Average number of points per batch           ...      110
Average number of grid points per atom       ...      442
UseSFitting                                  ... on

GRIDX 2
-------
General Integration Accuracy     IntAcc      ... 4.020
Radial Grid Type                 RadialGrid  ... OptM3 with GC (2021)
Angular Grid (max. ang.)         AngularGrid ... 2 (Lebedev-110)
Angular grid pruning method      GridPruning ... 4 (adaptive)
Weight generation scheme         WeightScheme... mBecke (2022)
Basis function cutoff            BFCut       ... 1.0000e-11
Integration weight cutoff        WCut        ... 1.0000e-14
Partially contracted basis set               ... on
Rotationally invariant grid construction     ... off
Angular grids for H and He will be reduced by one unit

Total number of grid points                  ...     1622
Total number of batches                      ...       14
Average number of points per batch           ...      115
Average number of grid points per atom       ...      811
UseSFitting                                  ... on

GRIDX 3
-------
General Integration Accuracy     IntAcc      ... 4.338
Radial Grid Type                 RadialGrid  ... OptM3 with GC (2021)
Angular Grid (max. ang.)         AngularGrid ... 3 (Lebedev-194)
Angular grid pruning method      GridPruning ... 4 (adaptive)
Weight generation scheme         WeightScheme... mBecke (2022)
Basis function cutoff            BFCut       ... 1.0000e-11
Integration weight cutoff        WCut        ... 1.0000e-14
Partially contracted basis set               ... on
Rotationally invariant grid construction     ... off
Angular grids for H and He will be reduced by one unit

Total number of grid points                  ...     3582
Total number of batches                      ...       28
Average number of points per batch           ...      127
Average number of grid points per atom       ...     1791
UseSFitting                                  ... on
<<<<<<< HEAD
Grids setup in   0.0 sec
Initializing property integral containers    ... done (  0.0 sec)

SHARK setup successfully completed in   0.0 seconds

Maximum memory used throughout the entire STARTUP-calculation: 4.4 MB
Occupation numbers will be reassigned to an Aufbau configuration
             **** ENERGY FILE WAS UPDATED (h2.en.tmp) ****
Finished Guess after   0.0 sec
Maximum memory used throughout the entire GUESS-calculation: 2.5 MB
=======
Initializing property integral containers    ... done (  0.0 sec)

SHARK setup successfully completed in   0.1 seconds

Maximum memory used throughout the entire STARTUP-calculation: 4.3 MB
Occupation numbers will be reassigned to an Aufbau configuration
             **** ENERGY FILE WAS UPDATED (h2.en.tmp) ****
Finished Guess after   0.0 sec
Maximum memory used throughout the entire GUESS-calculation: 2.4 MB
>>>>>>> 0c29d438a49df62ff2fa5bbfa969bdc702e9668e
----------------------------------------D-I-I-S--------------------------------------------
Iteration    Energy (Eh)           Delta-E    RMSDP     MaxDP     DIISErr   Damp  Time(sec)
-------------------------------------------------------------------------------------------
               ***  Starting incremental Fock matrix formation  ***
                              *** Initializing SOSCF ***
---------------------------------------S-O-S-C-F--------------------------------------
Iteration    Energy (Eh)           Delta-E    RMSDP     MaxDP     MaxGrad    Time(sec)
--------------------------------------------------------------------------------------
<<<<<<< HEAD
    1     -1.1729171108704692     0.00e+00  2.01e-04  6.96e-04  2.99e-04     0.0
               *** Restarting incremental Fock matrix formation ***
    2     -1.1729230644631243    -5.95e-06  3.05e-05  9.66e-05  1.01e-04     0.0
    3     -1.1729231010526631    -3.66e-08  2.15e-06  5.07e-06  2.00e-05     0.0
    4     -1.1729231017661559    -7.13e-10  1.13e-07  3.00e-07  1.77e-06     0.0
=======
    1     -1.1729221241959116     0.00e+00  1.36e-04  4.68e-04  2.01e-04     0.0
               *** Restarting incremental Fock matrix formation ***
    2     -1.1729248240196282    -2.70e-06  2.05e-05  6.50e-05  6.78e-05     0.0
    3     -1.1729248406615262    -1.66e-08  1.44e-06  3.39e-06  1.35e-05     0.0
    4     -1.1729248409655448    -3.04e-10  7.64e-08  2.02e-07  1.19e-06     0.0
>>>>>>> 0c29d438a49df62ff2fa5bbfa969bdc702e9668e
                 **** Energy Check signals convergence ****

               *****************************************************
               *                     SUCCESS                       *
               *           SCF CONVERGED AFTER   4 CYCLES          *
               *****************************************************

<<<<<<< HEAD
Recomputing exchange energy using gridx3       ... done (    0.013 sec)
Old exchange energy                            :     -0.131075710 Eh
New exchange energy                            :     -0.131076928 Eh
Exchange energy change after final integration :     -0.000001218 Eh
Total energy after final integration           :     -1.172924320 Eh
=======
Recomputing exchange energy using gridx3       ... done (    0.011 sec)
Old exchange energy                            :     -0.131124658 Eh
New exchange energy                            :     -0.131125817 Eh
Exchange energy change after final integration :     -0.000001159 Eh
Total energy after final integration           :     -1.172926000 Eh
>>>>>>> 0c29d438a49df62ff2fa5bbfa969bdc702e9668e
             **** ENERGY FILE WAS UPDATED (h2.en.tmp) ****

----------------
TOTAL SCF ENERGY
----------------

<<<<<<< HEAD
Total Energy       :         -1.17292432024954 Eh             -31.91689 eV

Components:
Nuclear Repulsion  :          0.70889976590093 Eh              19.29014 eV
Electronic Energy  :         -1.88182286773905 Eh             -51.20700 eV
One Electron Energy:         -2.49598053589849 Eh             -67.91908 eV
Two Electron Energy:          0.61415766815943 Eh              16.71208 eV

Virial components:
Potential Energy   :         -2.30726604888488 Eh             -62.78390 eV
Kinetic Energy     :          1.13434172863534 Eh              30.86701 eV
Virial Ratio       :          2.03401319958547

DFT components:
N(Alpha)           :        1.000000326451 electrons
N(Beta)            :        1.000000326451 electrons
N(Total)           :        2.000000652901 electrons
E(X)               :       -0.516530255489 Eh       
E(C)               :       -0.048892215554 Eh       
E(XC)              :       -0.565422471044 Eh       
=======
Total Energy       :         -1.17292600014424 Eh             -31.91694 eV

Components:
Nuclear Repulsion  :          0.70957906795374 Eh              19.30863 eV
Electronic Energy  :         -1.88250390891929 Eh             -51.22554 eV
[...]
=======
Rotational constants in cm-1:             0.000000            60.379679            60.379679 
Rotational constants in MHz :             0.000000       1810137.232180       1810137.232180 

Dipole components along the rotational axes: 
x,y,z [a.u.] :     0.000000    -0.000000    -0.000000 
x,y,z [Debye]:     0.000000    -0.000000    -0.000000 
>>>>>>> 0c29d438a49df62ff2fa5bbfa969bdc702e9668e

 

Dipole moment calculation done in   0.0 sec 

<<<<<<< HEAD
Maximum memory used throughout the entire PROP-calculation: 1.4 MB
=======
Maximum memory used throughout the entire PROP-calculation: 1.6 MB
>>>>>>> 0c29d438a49df62ff2fa5bbfa969bdc702e9668e

----------------------------------------------------------------------------
                           ORCA NUMERICAL FREQUENCIES
----------------------------------------------------------------------------

Number of atoms                ... 2
Central differences            ... used
<<<<<<< HEAD
Translation invariance         ... used
Number of displacements        ... 12 - 6
=======
Number of displacements        ... 12
>>>>>>> 0c29d438a49df62ff2fa5bbfa969bdc702e9668e
Numerical increment            ... 5.000e-03 bohr
IR-spectrum generation         ... on
Raman-spectrum generation      ... off
Surface Crossing Hessian       ... off

The output will be reduced. Please look at the following files:
SCF program output             ... >h2.lastscf
Integral program output        ... >h2.lastint
Gradient program output        ... >h2.lastgrad
Dipole moment program output   ... >h2.lastmom

<<<<<<< HEAD
	<< Calculating gradient on displaced geometry   1 (of   6) >>
	<< Calculating gradient on displaced geometry   2 (of   6) >>
	<< Calculating gradient on displaced geometry   3 (of   6) >>
	<< Calculating gradient on displaced geometry   4 (of   6) >>
	<< Calculating gradient on displaced geometry   5 (of   6) >>
	<< Calculating gradient on displaced geometry   6 (of   6) >>
=======
	<< Calculating gradient on displaced geometry   1 (of  12) >>
	<< Calculating gradient on displaced geometry   2 (of  12) >>
	<< Calculating gradient on displaced geometry   3 (of  12) >>
	<< Calculating gradient on displaced geometry   4 (of  12) >>
	<< Calculating gradient on displaced geometry   5 (of  12) >>
	<< Calculating gradient on displaced geometry   6 (of  12) >>
	<< Calculating gradient on displaced geometry   7 (of  12) >>
	<< Calculating gradient on displaced geometry   8 (of  12) >>
	<< Calculating gradient on displaced geometry   9 (of  12) >>
	<< Calculating gradient on displaced geometry  10 (of  12) >>
	<< Calculating gradient on displaced geometry  11 (of  12) >>
	<< Calculating gradient on displaced geometry  12 (of  12) >>
>>>>>>> 0c29d438a49df62ff2fa5bbfa969bdc702e9668e

-----------------------
VIBRATIONAL FREQUENCIES
-----------------------

Scaling factor for frequencies =  1.000000000  (already applied!)

     0:       0.00 cm**-1
     1:       0.00 cm**-1
     2:       0.00 cm**-1
     3:       0.00 cm**-1
     4:       0.00 cm**-1
<<<<<<< HEAD
     5:    4417.80 cm**-1
=======
     5:    4419.14 cm**-1
>>>>>>> 0c29d438a49df62ff2fa5bbfa969bdc702e9668e


------------
NORMAL MODES
------------

These modes are the Cartesian displacements weighted by the diagonal matrix
M(i,i)=1/sqrt(m[i]) where m[i] is the mass of the displaced atom
Thus, these vectors are normalized but *not* orthogonal

                  0          1          2          3          4          5    
<<<<<<< HEAD
      0       0.000000   0.000000   0.000000   0.000000   0.000000   0.000000
      1       0.000000   0.000000   0.000000   0.000000   0.000000   0.000000
      2       0.000000   0.000000   0.000000   0.000000   0.000000  -0.707107
      3       0.000000   0.000000   0.000000   0.000000   0.000000   0.000000
      4       0.000000   0.000000   0.000000   0.000000   0.000000   0.000000
      5       0.000000   0.000000   0.000000   0.000000   0.000000   0.707107
=======
      0       0.000000   0.000000   0.000000   0.000000   0.000000  -0.707107
      1       0.000000   0.000000   0.000000   0.000000   0.000000   0.000000
      2       0.000000   0.000000   0.000000   0.000000   0.000000   0.000000
      3       0.000000   0.000000   0.000000   0.000000   0.000000   0.707107
      4       0.000000   0.000000   0.000000   0.000000   0.000000   0.000000
      5       0.000000   0.000000   0.000000   0.000000   0.000000   0.000000
>>>>>>> 0c29d438a49df62ff2fa5bbfa969bdc702e9668e


-----------
IR SPECTRUM
-----------

 Mode   freq       eps      Int      T**2         TX        TY        TZ
       cm**-1   L/(mol*cm) km/mol    a.u.
----------------------------------------------------------------------------
<<<<<<< HEAD
  5:   4417.80   0.000000    0.00  0.000000  (-0.000000 -0.000000  0.000000)
=======
  5:   4419.14   0.000000    0.00  0.000000  (-0.000000 -0.000000 -0.000000)
>>>>>>> 0c29d438a49df62ff2fa5bbfa969bdc702e9668e

* The epsilon (eps) is given for a Dirac delta lineshape.
** The dipole moment derivative (T) already includes vibrational overlap.

The first frequency considered to be a vibration is 5
The total number of vibrations considered is 1


--------------------------
THERMOCHEMISTRY AT 298.15K
--------------------------

Temperature         ...   298.15 K
Pressure            ...     1.00 atm
Total Mass          ...     2.02 AMU
Quasi RRHO          ...     True
Cut-Off Frequency   ...     1.00 cm^-1
The molecule is recognized as being linear

Throughout the following assumptions are being made:
  (1) The electronic state is orbitally nondegenerate
  (2) There are no thermally accessible electronically excited states
  (3) Hindered rotations indicated by low frequency modes are not
      treated as such but are treated as vibrations and this may
      cause some error
  (4) All equations used are the standard statistical mechanics
      equations for an ideal gas
  (5) All vibrations are strictly harmonic

<<<<<<< HEAD
freq.    4417.80  E(vib)   ...       0.00 
=======
freq.    4419.14  E(vib)   ...       0.00 
>>>>>>> 0c29d438a49df62ff2fa5bbfa969bdc702e9668e

------------
INNER ENERGY
------------

The inner energy is: U= E(el) + E(ZPE) + E(vib) + E(rot) + E(trans)
    E(el)   - is the total energy from the electronic structure calculation
              = E(kin-el) + E(nuc-el) + E(el-el) + E(nuc-nuc)
    E(ZPE)  - the the zero temperature vibrational energy from the frequency calculation
    E(vib)  - the the finite temperature correction to E(ZPE) due to population
              of excited vibrational states
    E(rot)  - is the rotational thermal energy
    E(trans)- is the translational thermal energy

Summary of contributions to the inner energy U:
Electronic energy                ...     -1.17292745 Eh
<<<<<<< HEAD
Zero point energy                ...      0.01006449 Eh       6.32 kcal/mol
=======
Zero point energy                ...      0.01006755 Eh       6.32 kcal/mol
>>>>>>> 0c29d438a49df62ff2fa5bbfa969bdc702e9668e
Thermal vibrational correction   ...      0.00000000 Eh       0.00 kcal/mol
Thermal rotational correction    ...      0.00094418 Eh       0.59 kcal/mol
Thermal translational correction ...      0.00141627 Eh       0.89 kcal/mol
-----------------------------------------------------------------------
<<<<<<< HEAD
Total thermal energy                     -1.16050251 Eh
=======
Total thermal energy                     -1.16049945 Eh
>>>>>>> 0c29d438a49df62ff2fa5bbfa969bdc702e9668e


Summary of corrections to the electronic energy:
(perhaps to be used in another calculation)
Total thermal correction                  0.00236045 Eh       1.48 kcal/mol
<<<<<<< HEAD
Non-thermal (ZPE) correction              0.01006449 Eh       6.32 kcal/mol
-----------------------------------------------------------------------
Total correction                          0.01242494 Eh       7.80 kcal/mol
=======
Non-thermal (ZPE) correction              0.01006755 Eh       6.32 kcal/mol
-----------------------------------------------------------------------
Total correction                          0.01242800 Eh       7.80 kcal/mol
>>>>>>> 0c29d438a49df62ff2fa5bbfa969bdc702e9668e


--------
ENTHALPY
--------

The enthalpy is H = U + kB*T
                kB is Boltzmann's constant
<<<<<<< HEAD
Total thermal energy              ...     -1.16050251 Eh 
Thermal Enthalpy correction       ...      0.00094421 Eh       0.59 kcal/mol
-----------------------------------------------------------------------
Total Enthalpy                    ...     -1.15955830 Eh
=======
Total thermal energy              ...     -1.16049945 Eh 
Thermal Enthalpy correction       ...      0.00094421 Eh       0.59 kcal/mol
-----------------------------------------------------------------------
Total Enthalpy                    ...     -1.15955524 Eh
>>>>>>> 0c29d438a49df62ff2fa5bbfa969bdc702e9668e


Note: Rotational entropy computed according to Herzberg 
Infrared and Raman Spectra, Chapter V,1, Van Nostrand Reinhold, 1945 
<<<<<<< HEAD
Point Group:  D(inf)h, Symmetry Number:   2  
Rotational constants in cm-1:     0.000000    60.379848    60.379848 
=======
Point Group:  D(inf)h, Symmetry Number:   1  
Rotational constants in cm-1:     0.000000    60.379679    60.379679 
>>>>>>> 0c29d438a49df62ff2fa5bbfa969bdc702e9668e

Vibrational entropy computed according to the QRRHO of S. Grimme
Chem.Eur.J. 2012 18 9955 using a reference frequency of 100.0 cm-1


-------
ENTROPY
-------

The entropy contributions are T*S = T*(S(el)+S(vib)+S(rot)+S(trans))
     S(el)   - electronic entropy
     S(vib)  - vibrational entropy
     S(rot)  - rotational entropy
     S(trans)- translational entropy
The entropies will be listed as multiplied by the temperature to get
units of energy

Electronic entropy                ...      0.00000000 Eh      0.00 kcal/mol
Vibrational entropy               ...     -0.00000000 Eh     -0.00 kcal/mol
<<<<<<< HEAD
Rotational entropy                ...      0.00145405 Eh      0.91 kcal/mol
Translational entropy             ...      0.01334204 Eh      8.37 kcal/mol
-----------------------------------------------------------------------
Final entropy term                ...      0.01479609 Eh      9.28 kcal/mol
=======
Rotational entropy                ...      0.00210850 Eh      1.32 kcal/mol
Translational entropy             ...      0.01334204 Eh      8.37 kcal/mol
-----------------------------------------------------------------------
Final entropy term                ...      0.01545055 Eh      9.70 kcal/mol
>>>>>>> 0c29d438a49df62ff2fa5bbfa969bdc702e9668e


-------------------
GIBBS FREE ENERGY
-------------------

The Gibbs free energy is G = H - T*S

<<<<<<< HEAD
Total enthalpy                    ...     -1.15955830 Eh 
Total entropy correction          ...     -0.01479609 Eh     -9.28 kcal/mol
-----------------------------------------------------------------------
Final Gibbs free energy         ...     -1.17435439 Eh

For completeness - the Gibbs free energy minus the electronic energy
G-E(el)                           ...     -0.00142693 Eh     -0.90 kcal/mol
=======
Total enthalpy                    ...     -1.15955524 Eh 
Total entropy correction          ...     -0.01545055 Eh     -9.70 kcal/mol
-----------------------------------------------------------------------
Final Gibbs free energy         ...     -1.17500579 Eh

For completeness - the Gibbs free energy minus the electronic energy
G-E(el)                           ...     -0.00207833 Eh     -1.30 kcal/mol
>>>>>>> 0c29d438a49df62ff2fa5bbfa969bdc702e9668e



--------------------------------
SUGGESTED CITATIONS FOR THIS RUN
--------------------------------

Below you find a list of papers that are relevant to this ORCA run
We neither can nor want to force you to cite these papers, but we appreciate if you do
You receive ORCA, which is the product of decades of hard work by many enthusiastic individuals, for free
The only thing we kindly ask in return is that you cite our papers,
We deeply appreciate it, if you show your appreciation for ORCA by not just citing the generic ORCA reference.

Please note that relegating all ORCA citations to the supporting information does *not* help us.
SI sections are not indexed - citations you put there will not count into any citation statistics
But we need these citations in order to attract the funding resources that allow us to do what we are doing

Therefore, if you are a happy ORCA user, please consider citing a few of the papers listed below in the main body of your paper

In addition to the list printed below, the program has created the file h2.bibtex that contains the list in bibtex format
You can import this file easily into all common literature databanks and citation aid programs


List of essential papers. We consider these as the minimum necessary citations

<<<<<<< HEAD
  1. Neese, F.
     Software update: the ORCA program system, version 6.0
     WIRES Comput. Molec. Sci. 2025 15(1), e70019
     doi.org/10.1002/wcms.7019
=======
  1. Neese,F.
     Software update: the ORCA program system, version 5.0
     WIRES Comput. Molec. Sci., 2022 12(1)e1606
     doi.org/10.1002/wcms.1606
>>>>>>> 0c29d438a49df62ff2fa5bbfa969bdc702e9668e

List of papers to cite with high priority. The work reported in these papers was absolutely
necessary for this run to complete.
Our perspective: the developers of density functionals and basis sets usually get cited in chemistry papers
Good! But without the algorithms to do something with them, the functionals or basis sets would not do anything.
Hence, in our opinion, the algorithm design and method developments papers are equally worthy of getting cited

<<<<<<< HEAD
  1. Neese, F.
     An improvement of the resolution of the identity approximation for the formation of the Coulomb matrix
     J. Comp. Chem. 2003 24(14), 1740-1747
     doi.org/10.1002/jcc.10318
  2. Neese, F.; Wennmohs, F.; Hansen, A.; Becker, U.
     Efficient, approximate and parallel Hartree-Fock and hybrid DFT calculations. A 'chain-of-spheres' algorithm for the Hartree-Fock exchange
     Chem. Phys. 2009 356(1-3), 98-109
     doi.org/10.1016/j.chemphys.2008.10.036
  3. Helmich-Paris, B.; de Souza, B.; Neese, F.; Izsák, R.
     An improved chain of spheres for exchange algorithm
     J. Chem. Phys. 2021 155(10), 104109
     doi.org/10.1063/5.0058766
  4. Neese, F.
     The SHARK Integral Generation and Digestion System
     J. Comp. Chem. 2022 44(3), 381
=======
  1. Neese,F.
     An improvement of the resolution of the identity approximation for the formation of the Coulomb matrix
     J. Comp. Chem., 2003 24(14)1740-1747
     doi.org/10.1002/jcc.10318
  2. Neese,F.; Wennmohs,F.; Hansen,A.; Becker,U.
     Efficient, approximate and parallel Hartree-Fock and hybrid DFT calculations. A 'chain-of-spheres' algorithm for the Hartree-Fock exchange
     Chem. Phys., 2009 356(1-3)98-109
     doi.org/10.1016/j.chemphys.2008.10.036
  3. Bykov,D.; Petrenko,T.; Izsak,R.; Kossmann,S.; Becker,U.; Valeev,E.; Neese,F.
     Efficient implementation of the analytic second derivatives of Hartree-Fock and hybrid DFT energies: a detailed analysis of different approximations
     Molec. Phys., 2015 113 1961-1977
     doi.org/10.1080/00268976.2015.1025114
  4. Helmich-Paris,B.; de Souza,B.; Neese,F.; Izsák,R.
     An improved chain of spheres for exchange algorithm
     J. Chem. Phys., 2021 155 104109
     doi.org/doi: 10.1063/5.0058766.
  5. Neese,F.
     The SHARK Integral Generation and Digestion System
     J. Comp. Chem., 2022  1-16
>>>>>>> 0c29d438a49df62ff2fa5bbfa969bdc702e9668e
     doi.org/10.1002/jcc.26942

List of suggested additional citations. These are papers that are important in the 'surrounding' of 
of this run, or papers that preceded the highly important papers. If you like your results we are grateful for a citation.

<<<<<<< HEAD
  1. Izsak, R.; Neese, F.
     An overlap fitted chain of spheres exchange method
     J. Chem. Phys. 2011 135 , 144105
     doi.org/10.1063/1.3646921
  2. Izsak, R.; Hansen, A.; Neese, F.
     The resolution of identity and chain of spheres approximations for the LPNO-CCSD singles Fock term
     Molec. Phys. 2012 110 , 2413-2417
     doi.org/10.1080/00268976.2012.687466
  3. Neese, F.
     The ORCA program system
     WIRES Comput. Molec. Sci. 2012 2(1), 73-78
     doi.org/10.1002/wcms.81
  4. Izsak, R.; Neese, F.; Klopper, W.
     Robust fitting techniques in the chain of spheres approximation to the Fock exchange: The role of the complementary space
     J. Chem. Phys. 2013 139 , 
     doi.org/10.1063/1.4819264
  5. Neese, F.
     Software update: the ORCA program system, version 4.0
     WIRES Comput. Molec. Sci. 2018 8(1), 1-6
     doi.org/10.1002/wcms.1327
  6. Neese, F.; Wennmohs, F.; Becker, U.; Riplinger, C.
     The ORCA quantum chemistry program package
     J. Chem. Phys. 2020 152(22), 224108
     doi.org/10.1063/5.0004608
  7. Neese, F.
     Software update: The ORCA program system—Version 5.0
     WIRES Comput. Molec. Sci. 2022 12(1), e1606
     doi.org/10.1002/wcms.1606

List of optional additional citations

  1. Neese, F.
     Approximate second-order SCF convergence for spin unrestricted wavefunctions
     Chem. Phys. Lett. 2000 325(1-3), 93-98
=======
  1. Izsak,R.; Neese,F.
     An overlap fitted chain of spheres exchange method
     J. Chem. Phys., 2011 135 144105
     doi.org/10.1063/1.3646921
  2. Izsak,R.; Hansen,A.; Neese,F.
     The resolution of identity and chain of spheres approximations for the LPNO-CCSD singles Fock term
     Molec. Phys., 2012 110 2413-2417
     doi.org/10.1080/00268976.2012.687466
  3. Neese,F.
     The ORCA program system
     WIRES Comput. Molec. Sci., 2012 2(1)73-78
     doi.org/10.1002/wcms.81
  4. Izsak,R.; Neese,F.; Klopper,W.
     Robust fitting techniques in the chain of spheres approximation to the Fock exchange: The role of the complementary space
     J. Chem. Phys., 2013 139 
     doi.org/10.1063/1.4819264
  5. Neese,F.
     Software update: the ORCA program system, version 4.0
     WIRES Comput. Molec. Sci., 2018 8(1)1-6
     doi.org/10.1002/wcms.1327
  6. Neese,F.; Wennmohs,F.; Becker,U.; Riplinger,C.
     The ORCA quantum chemistry program package
     J. Chem. Phys., 2020 152 Art. No. L224108
     doi.org/10.1063/5.0004608

List of optional additional citations

  1. Neese,F.
     Approximate second-order SCF convergence for spin unrestricted wavefunctions
     Chem. Phys. Lett., 2000 325(1-3)93-98
>>>>>>> 0c29d438a49df62ff2fa5bbfa969bdc702e9668e
     doi.org/10.1016/s0009-2614(00)00662-x

Timings for individual modules:

<<<<<<< HEAD
Sum of individual times          ...        7.706 sec (=   0.128 min)
Startup calculation              ...        0.327 sec (=   0.005 min)   4.2 %
SCF iterations                   ...        1.007 sec (=   0.017 min)  13.1 %
Property calculations            ...        0.032 sec (=   0.001 min)   0.4 %
SCF Gradient evaluation          ...        0.612 sec (=   0.010 min)   7.9 %
Geometry relaxation              ...        0.006 sec (=   0.000 min)   0.1 %
Numerical frequency calculation  ...        5.722 sec (=   0.095 min)  74.2 %
                             ****ORCA TERMINATED NORMALLY****
TOTAL RUN TIME: 0 days 0 hours 0 minutes 7 seconds 457 msec
=======
Sum of individual times          ...        9.866 sec (=   0.164 min)
Startup calculation              ...        0.391 sec (=   0.007 min)   4.0 %
SCF iterations                   ...        1.097 sec (=   0.018 min)  11.1 %
Property calculations            ...        0.030 sec (=   0.001 min)   0.3 %
SCF Gradient evaluation          ...        0.635 sec (=   0.011 min)   6.4 %
Geometry relaxation              ...        0.008 sec (=   0.000 min)   0.1 %
Numerical frequency calculation  ...        7.705 sec (=   0.128 min)  78.1 %
                             ****ORCA TERMINATED NORMALLY****
TOTAL RUN TIME: 0 days 0 hours 0 minutes 9 seconds 616 msec
>>>>>>> 0c29d438a49df62ff2fa5bbfa969bdc702e9668e
