
                                 *****************
                                 * O   R   C   A *
                                 *****************

                                            #,                                       
                                            ###                                      
                                            ####                                     
                                            #####                                    
                                            ######                                   
                                           ########,                                 
                                     ,,################,,,,,                         
                               ,,#################################,,                 
                          ,,##########################################,,             
                       ,#########################################, ''#####,          
                    ,#############################################,,   '####,        
                  ,##################################################,,,,####,       
                ,###########''''           ''''###############################       
              ,#####''   ,,,,##########,,,,          '''####'''          '####       
            ,##' ,,,,###########################,,,                        '##       
           ' ,,###''''                  '''############,,,                           
         ,,##''                                '''############,,,,        ,,,,,,###''
      ,#''                                            '''#######################'''  
     '                                                          ''''####''''         
             ,#######,   #######,   ,#######,      ##                                
            ,#'     '#,  ##    ##  ,#'     '#,    #''#        ,####,    ,#,          
            ##       ##  ##   ,#'  ##            #'  '#       #'       ,# #          
            ##       ##  #######   ##           ,######,      #####,      #          
            '#,     ,#'  ##    ##  '#,     ,#' ,#      #,     #,   #      #          
             '#######'   ##     ##  '#######'  #'      '#     '####' #    #          



                #########################################################
                #                        -***-                          #
                #          Department of theory and spectroscopy        #
                #                                                       #
                #                      Frank Neese                      #
                #                                                       #
                #     Directorship, Architecture, Infrastructure        #
                #                    SHARK, DRIVERS                     #
                #        Core code/Algorithms in most modules           #
                #                                                       #
                #        Max Planck Institute fuer Kohlenforschung      #
                #                Kaiser Wilhelm Platz 1                 #
                #                 D-45470 Muelheim/Ruhr                 #
                #                      Germany                          #
                #                                                       #
                #                  All rights reserved                  #
                #                        -***-                          #
                #########################################################


                         Program Version 6.1.0  -  RELEASE   -
                                (GIT: $679e74b$)
                          ($2025-06-10 18:02:51 +0200$)


 With contributions from (in alphabetic order):
[Max-Planck-Institut fuer Kohlenforschung]                               
  Daniel Aravena         : Magnetic Suceptibility                        
  Michael Atanasov       : Ab Initio Ligand Field Theory (pilot matlab implementation)
  Alexander A. Auer      : GIAO ZORA, VPT2 properties, NMR spectrum      
  Ute Becker             : All parallelization in ORCA, NUMFREQ, NUMCALC 
  Giovanni Bistoni       : ED, misc. LED, open-shell LED, HFLD           
  Dmytro Bykov           : pre 5.0 version of the SCF Hessian            
  Marcos Casanova-Páez   : Triplet and SCS-CIS(D). UHF-(DLPNO)-IP/EA/STEOM-CCSD. UHF-CVS-IP/STEOM-CCSD   
  Vijay G. Chilkuri      : MRCI spin determinant printing, contributions to CSF-ICE 
  Pauline Colinet        : FMM embedding                                 
  Dipayan Datta          : RHF DLPNO-CCSD density                        
  Achintya Kumar Dutta   : EOM-CC, STEOM-CC                              
  Nicolas Foglia         : Exact transition moments, OPA infrastructure, MCD improvements    
  Dmitry Ganyushin       : Spin-Orbit,Spin-Spin,Magnetic field MRCI      
  Miquel Garcia-Rates    : C-PCM and meta-GGA Hessian, CCSD/C-PCM, Gaussian charge scheme 
  Tiago L. C. Gouveia    : GS-ROHF, GS-ROCIS                             
  Yang Guo               : DLPNO-NEVPT2, F12-NEVPT2, CIM, IAO-localization        
  Andreas Hansen         : Spin unrestricted coupled pair/coupled cluster methods 
  Ingolf Harden          : AUTO-CI MPn and infrastructure                
  Benjamin Helmich-Paris : MC-RPA, TRAH-(SCF,CASSCF), AVAS, COSX integrals, SCF dyn. polar., MC-PDFT, srDFT 
  Lee Huntington         : MR-EOM, pCC                                   
  Robert Izsak           : Overlap fitted RIJCOSX, COSX-SCS-MP3, EOM     
  Riya Kayal             : Wick's Theorem for AUTO-CI, AUTO-CI UHF-CCSDT 
  Emily Kempfer          : AUTO-CI RHF CISDT and CCSDT, approximate NEVPT4
  Christian Kollmar      : KDIIS, OOCD, Brueckner-CCSD(T), CCSD density, CASPT2, CASPT2-K, improved NEVPT2 
  Axel Koslowski         : Symmetry handling                             
  Simone Kossmann        : meta-GGA functionals, TD-DFT gradient, OOMP2, (MP2 Hessian; deprecated post 5.0) 
  Lucas Lang             : DCDCAS, Hyperfine gauge corrections, ICE-SOC+SSC
  Marvin Lechner         : AUTO-CI (C++ implementation), FIC-MRCC        
  Spencer Leger          : CASSCF response                               
  Dagmar Lenk            : GEPOL surface, SMD, ORCA-2-JSON               
  Dimitrios Liakos       : Extrapolation schemes; Compound Job, Property file
  Dimitrios Manganas     : Further ROCIS development; embedding schemes. LFT, Crystal Embedding 
  Dimitrios Pantazis     : SARC Basis sets                               
  Anastasios Papadopoulos: AUTO-CI, single reference methods and gradients 
  Taras Petrenko         : pre 6.0 DFT Hessian and TD-DFT gradient,  ECA, NRVS 
  Petra Pikulova         : Analytic Raman intensities                    
  Peter Pinski           : DLPNO-MP2, DLPNO-MP2 Gradient                 
  Shashank Vittal Rao    : ES-AILFT, MagRelax                            
  Christoph Reimann      : Effective Core Potentials                     
  Marius Retegan         : Local ZFS, SOC                                
  Christoph Riplinger    : Optimizer, TS searches, QM/MM, DLPNO-CCSD(T), (RO)-DLPNO pert. Triples 
  Michael Roemelt        : Original ROCIS implementation, recursive CI coupling coefficients
  Masaaki Saitow         : Open-shell DLPNO-CCSD energy and density      
  Barbara Sandhoefer     : DKH picture change effects                    
  Yorick L. A. Schmerwitz: GMF and freeze-and-release deltaSCF, NEB S-IDPP initial path                    
  Kantharuban Sivalingam : CASSCF convergence/infrastructure, NEVPT2, NEVPT3, NEVPT4(SD), FIC-MRCI and CEPA variants
  Bernardo de Souza      : ESD, SOC TD-DFT                               
  Georgi L. Stoychev     : AutoAux, RI-MP2 NMR, DLPNO-MP2 response, X2C  
  Van Anh Tran           : RI-MP2 g-tensors                              
  Willem Van den Heuvel  : Paramagnetic NMR                              
  Zikuan Wang            : NOTCH, Electric field optimization            
  Frank Wennmohs         : Technical directorship and infrastructure     
  Hang Xu                : AUTO-CI-Response properties                   
                                                                         
[FACCTs GmbH]                                                            
  Markus Bursch, Nicolas Foglia, Miquel Garcia-Rates, Ingolf Harden, Hagen Neugebauer, Anastasios Papadopoulos, 
  Christoph Riplinger, Bernardo de Souza, Georgi L. Stoychev                                                    
                                                                 
  APM, various basis sets, CI-OPT, improved COSX, DLPNO-Multilevel,           
  DOCKER, DRACO, updates on ESD, Fragmentator, GOAT, IRC, LR-CPCM, L-BFGS, MBIS, meta-GGA TD-DFT gradient, ML-optimized integration grids, 
  MM, NACMEs, nearIR, NEB, NEB-TS, NL-DFT gradient (VV10), 2- and 3-layer-ONIOM, interface openCOSMO-RS, QMMM,   
  Crystal-QMMM, RESP, rigid body optimization, SF, symmetry and pop. for TD-DFT, various functionals, SOLVATOR                                   
                                                                         
[Other institutions]                                                     
  V. Asgeirsson          : NEB                                           
  Christoph Bannwarth    : sTDA-DFT, sTD-DFT, PBEh-3c, B97-3c, D3        
  Giovanni Bistoni       : ETS/NOCV, ADLD/ADEX, COVALED                  
  Martin Brehm           : Molecular dynamics                            
  Ronald Cardenas        : ETS/NOCV                                      
  Martina Colucci        : COVALED                                       
  Sebastian Ehlert       : rSCAN, r2SCAN, r2SCAN-3c, D4, dhf basis sets  
  Marvin Friede          : D4 for Fr, Ra, Ac-Lr                          
  Lars Goerigk           : TD-DFT with DH, B97 family of functionals     
  Stefan Grimme          : VdW corrections, initial TS optimization, DFT functionals, gCP, sTDA/sTD-DF 
  Waldemar Hujo          : DFT-NL                                        
  H. Jonsson             : NEB                                           
  Holger Kruse           : gCP                                           
  Marcel Mueller         : wB97X-3c, vDZP basis set                      
  Hagen Neugebauer       : wr2SCAN, Native XTB                           
  Gianluca Regni         : ADLD/ADEX                                     
  Tobias Risthaus        : pre 6.0 range-separated hybrid DFT and stability analysis
  Lukas Wittmann         : regularized MP2, r2SCAN double-hybrids, wr2SCAN        
                                                                         
We gratefully acknowledge several colleagues who have allowed us to      
interface, adapt or use parts of their codes:                            
  Ed Valeev, F. Pavosevic, A. Kumar             : LibInt (2-el integral package), F12 methods 
  Garnet Chan, S. Sharma, J. Yang, R. Olivares  : DMRG                   
  Ulf Ekstrom                                   : XCFun DFT Library      
  Mihaly Kallay                                 : mrcc  (arbitrary order and MRCC methods)
  Frank Weinhold                                : gennbo (NPA and NBO analysis)           
  Simon Mueller                                 : openCOSMO-RS                            
  Christopher J. Cramer and Donald G. Truhlar   : smd solvation model                     
  S Lehtola, MJT Oliveira, MAL Marques          : LibXC Library                           
  Liviu Ungur et al                             : ANISO software                          


 Your calculation uses the libint2 library for the computation of 2-el integrals
 For citations please refer to: http://libint.valeyev.net

 Your ORCA version has been built with support for libXC version: 7.0.0
 For citations please refer to: https://libxc.gitlab.io

 This ORCA versions uses:
   CBLAS   interface :  Fast vector & matrix operations
   LAPACKE interface :  Fast linear algebra routines
   SCALAPACK package :  Parallel linear algebra routines
   Shared memory     :  Shared parallel matrices
   BLAS/LAPACK       :  OpenBLAS 0.3.29  USE64BITINT DYNAMIC_ARCH NO_AFFINITY Haswell SINGLE_THREADED
        Core in use  :  Haswell
   Copyright (c) 2011-2014, The OpenBLAS Project


  ***********************************
  * Starting time: Wed Aug  6 13:32:37 2025
  * Host name:     sv1-c724
  * Process ID:    3740854
  * Working dir.:  /home/lme/practical_course/practical_course_bachelor/ch4/hf_6_311_g_dp
  ***********************************

================================================================================

----- Orbital basis set information -----
Your calculation utilizes the basis: 6-311G(d,p)
   H, Li - Ne  : R. Krishnan, J. S. Binkley, R. Seeger and J. A. Pople, J. Chem. Phys. 72, 650 (1980).
   Na - Ar     : A. D. McLean and G. S. Chandler J. Chem. Phys. 72, 5639, (1980).
   K  - Ca     : J.-P. Blaudeau, M. P. McGrath, L. A. Curtiss and L. Radom, J. Chem. Phys. 107, 5016 (1997).
   Ga - Kr     : L. A. Curtiss, M. P. McGrath, J.-P. Blandeau, N. E. Davis, R. C. Binning and L. Radom, J. Chem. Phys. 103, 6104 (1995).
   Pol./Diff.
   H, Li - Cl  : T. Clark, J. Chandrasekhar and P. v. R. Schleyer, J. Comp. Chem. 4, 294 (1983).
   H - Ne      : M. J. Frisch, J. A. Pople and J. S. Binkley, J. Chem. Phys. 80, 3265 (1984).

================================================================================
                                        WARNINGS
                       Please study these warnings very carefully!
================================================================================


WARNING: Geometry Optimization
  ===> : Switching off AutoStart
         For restart on a previous wavefunction, please use MOREAD

================================================================================
                                       INPUT FILE
================================================================================
NAME = ch4.inp
|  1> ! HF 6-311G(d,p) OPT FREQ
|  2> * xyz 0 1
|  3>   H      0.5288      0.1610      0.9359
|  4>   C      0.0000      0.0000      0.0000
|  5>   H      0.2051      0.8240     -0.6786
|  6>   H      0.3345     -0.9314     -0.4496
|  7>   H     -1.0685     -0.0537      0.1921
|  8> *
|  9> 
| 10>                          ****END OF INPUT****
================================================================================

                       *****************************
                       * Geometry Optimization Run *
                       *****************************

Geometry optimization settings:
Update method            Update   .... BFGS
Choice of coordinates    CoordSys .... (2022) Redundant Internals
Initial Hessian          InHess   .... Almloef's Model
Max. no of cycles        MaxIter  .... 50

Convergence Tolerances:
Energy Change            TolE     ....  5.0000e-06 Eh
Max. Gradient            TolMAXG  ....  3.0000e-04 Eh/bohr
RMS Gradient             TolRMSG  ....  1.0000e-04 Eh/bohr
Max. Displacement        TolMAXD  ....  4.0000e-03 bohr
RMS Displacement         TolRMSD  ....  2.0000e-03 bohr
Strict Convergence                .... False

------------------------------------------------------------------------------
                        ORCA OPTIMIZATION COORDINATE SETUP
------------------------------------------------------------------------------

The optimization will be done in redundant internal coordinates (2022)
Making redundant internal coordinates   ...  (2022 redundants) done
Evaluating the initial hessian          ...  (Almloef) done
Evaluating the coordinates              ...  done
Calculating the B-matrix                .... done
Calculating the G-matrix                .... done
The number of degrees of freedom        ....   10

    -----------------------------------------------------------------
                    Redundant Internal Coordinates


    -----------------------------------------------------------------
         Definition                    Initial Value    Approx d2E/dq
    -----------------------------------------------------------------
      1. B(C   1,H   0)                  1.0869         0.364158   
      2. B(H   2,C   1)                  1.0870         0.364108   
      3. B(H   3,C   1)                  1.0870         0.364111   
      4. B(H   4,C   1)                  1.0870         0.364146   
      5. A(H   0,C   1,H   3)          109.4722         0.291860   
      6. A(H   2,C   1,H   3)          109.4673         0.291854   
      7. A(H   0,C   1,H   4)          109.4743         0.291864   
      8. A(H   2,C   1,H   4)          109.4671         0.291858   
      9. A(H   3,C   1,H   4)          109.4676         0.291858   
     10. A(H   0,C   1,H   2)          109.4788         0.291860   
    -----------------------------------------------------------------

Number of atoms                         .... 5
Number of degrees of freedom            .... 10


         *************************************************************
         *                GEOMETRY OPTIMIZATION CYCLE   1            *
         *************************************************************
---------------------------------
CARTESIAN COORDINATES (ANGSTROEM)
---------------------------------
  H      0.528800    0.161000    0.935900
  C      0.000000    0.000000    0.000000
  H      0.205100    0.824000   -0.678600
  H      0.334500   -0.931400   -0.449600
  H     -1.068500   -0.053700    0.192100

----------------------------
CARTESIAN COORDINATES (A.U.)
----------------------------
  NO LB      ZA    FRAG     MASS         X           Y           Z
   0 H     1.0000    0     1.008    0.999287    0.304246    1.768595
   1 C     6.0000    0    12.011    0.000000    0.000000    0.000000
   2 H     1.0000    0     1.008    0.387583    1.557134   -1.282368
   3 H     1.0000    0     1.008    0.632113   -1.760091   -0.849621
   4 H     1.0000    0     1.008   -2.019172   -0.101478    0.363016

--------------------------------
INTERNAL COORDINATES (ANGSTROEM)
--------------------------------
 H      0   0   0     0.000000000000     0.00000000     0.00000000
 C      1   0   0     1.086949515847     0.00000000     0.00000000
 H      2   1   0     1.086986646652   109.47881566     0.00000000
 H      2   1   3     1.086984990697   109.47224096   120.00042779
 H      2   1   3     1.086958301868   109.47426454   239.99847195

---------------------------
INTERNAL COORDINATES (A.U.)
---------------------------
 H      0   0   0     0.000000000000     0.00000000     0.00000000
 C      1   0   0     2.054036906349     0.00000000     0.00000000
 H      2   1   0     2.054107073402   109.47881566     0.00000000
 H      2   1   3     2.054103944100   109.47224096   120.00042779
 H      2   1   3     2.054053509523   109.47426454   239.99847195

---------------------
BASIS SET INFORMATION
---------------------
There are 2 groups of distinct atoms

 Group   1 Type H   : 5s1p contracted to 3s1p pattern {311/1}
 Group   2 Type C   : 11s5p1d contracted to 4s3p1d pattern {6311/311/1}

Atom   0H    basis set group =>   1
Atom   1C    basis set group =>   2
Atom   2H    basis set group =>   1
Atom   3H    basis set group =>   1
Atom   4H    basis set group =>   1
------------------------------------------------------------------------------
                             ORCA STARTUP CALCULATIONS
------------------------------------------------------------------------------
------------------------------------------------------------------------------
                   ___                                                        
                  /   \      - P O W E R E D   B Y -                         
                 /     \                                                     
                 |  |  |   _    _      __       _____    __    __             
                 |  |  |  | |  | |    /  \     |  _  \  |  |  /  |          
                  \  \/   | |  | |   /    \    | | | |  |  | /  /          
                 / \  \   | |__| |  /  /\  \   | |_| |  |  |/  /          
                |  |  |   |  __  | /  /__\  \  |    /   |      \           
                |  |  |   | |  | | |   __   |  |    \   |  |\   \          
                \     /   | |  | | |  |  |  |  | |\  \  |  | \   \       
                 \___/    |_|  |_| |__|  |__|  |_| \__\ |__|  \__/        
                                                                              
                      - O R C A' S   B I G   F R I E N D -                    
                                      &                                       
                       - I N T E G R A L  F E E D E R -                       
                                                                              
 v1 FN, 2020, v2 2021, v3 2022-2024                                           
------------------------------------------------------------------------------


----------------------
SHARK INTEGRAL PACKAGE
----------------------

Number of atoms                             ...      5
Number of basis functions                   ...     42
Number of shells                            ...     24
Maximum angular momentum                    ...      2
Integral batch strategy                     ... SHARK/LIBINT Hybrid
RI-J (if used) integral strategy            ... SPLIT-RIJ (Revised 2003 algorithm where possible)
Printlevel                                  ...      1
Contraction scheme used                     ... SEGMENTED contraction
Prescreening option                         ... SCHWARTZ
   Thresh                                   ... 2.500e-11
   Tcut                                     ... 2.500e-12
   Tpresel                                  ... 2.500e-12 
Coulomb Range Separation                    ... NOT USED
Exchange Range Separation                   ... NOT USED
Multipole approximations                    ... NOT USED
Finite Nucleus Model                        ... NOT USED
CABS basis                                  ... NOT available
Auxiliary Coulomb fitting basis             ... NOT available
Auxiliary J/K fitting basis                 ... NOT available
Auxiliary Correlation fitting basis         ... NOT available
Auxiliary 'external' fitting basis          ... NOT available

Checking pre-screening integrals            ... done (  0.0 sec) Dimension = 24
   => SHARK Basis and OBASIS are compatible. Storing Pre-screening
Shell pair information
Shell pair cut-off parameter TPreSel        ...   2.5e-12
Total number of shell pairs                 ...       300
Shell pairs after pre-screening             ...       300
Total number of primitive shell pairs       ...       894
Primitive shell pairs kept                  ...       842
          la=0 lb=0:    136 shell pairs
          la=1 lb=0:    112 shell pairs
          la=1 lb=1:     28 shell pairs
          la=2 lb=0:     16 shell pairs
          la=2 lb=1:      7 shell pairs
          la=2 lb=2:      1 shell pairs

Checking whether 4 symmetric matrices of dimension 42 fit in memory
:Max Core in MB      =   4096.00
 MB in use           =      1.54
 MB left             =   4094.46
 MB needed           =      0.03
 Data fit in memory  = YES
Calculating Nuclear repulsion               ... done (  0.0 sec) ENN=     13.472842909791 Eh

Diagonalization of the overlap matrix:
Smallest eigenvalue                        ... 1.263e-02
Time for diagonalization                   ...    0.000 sec
Threshold for overlap eigenvalues          ... 1.000e-07
Number of eigenvalues below threshold      ... 0
Time for construction of square roots      ...    0.000 sec
Total time needed                          ...    0.001 sec

-------------------
DFT GRID GENERATION
-------------------

General Integration Accuracy     IntAcc      ... 4.388
Radial Grid Type                 RadialGrid  ... OptM3 with GC (2021)
Angular Grid (max. ang.)         AngularGrid ... 4 (Lebedev-302)
Angular grid pruning method      GridPruning ... 4 (adaptive)
Weight generation scheme         WeightScheme... mBecke (2022)
Basis function cutoff            BFCut       ... 1.0000e-11
Integration weight cutoff        WCut        ... 1.0000e-14
Partially contracted basis set               ... off
Rotationally invariant grid construction     ... off
Angular grids for H and He will be reduced by one unit

Total number of grid points                  ...    19254
Total number of batches                      ...      303
Average number of points per batch           ...       63
Average number of grid points per atom       ...     3851
Grids setup in   0.1 sec
Initializing property integral containers    ... done (  0.0 sec)

SHARK setup successfully completed in   0.1 seconds

Maximum memory used throughout the entire STARTUP-calculation: 7.7 MB
-------------------------------------------------------------------------------
                                 ORCA GUESS
                   Start orbitals & Density for SCF / CASSCF
-------------------------------------------------------------------------------

------------
SCF SETTINGS
------------
Hamiltonian:
 Ab initio Hamiltonian  Method          .... Hartree-Fock(GTOs)


General Settings:
 Integral files         IntName         .... ch4
 Hartree-Fock type      HFTyp           .... RHF
 Total Charge           Charge          ....    0
 Multiplicity           Mult            ....    1
 Number of Electrons    NEL             ....   10
 Basis Dimension        Dim             ....   42
 Nuclear Repulsion      ENuc            ....     13.4728429098 Eh

Convergence Acceleration:
 AO-DIIS                CNVDIIS         .... on
   Start iteration      DIISMaxIt       ....    12
   Startup error        DIISStart       ....  0.200000
   # of expansion vecs  DIISMaxEq       ....     5
   Bias factor          DIISBfac        ....   1.050
   Max. coefficient     DIISMaxC        ....  10.000
 MO-DIIS                CNVKDIIS        .... off
 Trust-Rad. Augm. Hess. CNVTRAH         .... auto
   Auto Start mean grad. ratio tolernc. ....  1.125000
   Auto Start start iteration           ....    50
   Auto Start num. interpolation iter.  ....    10
   Max. Number of Micro iterations      ....    24
   Max. Number of Macro iterations      .... Maxiter - #DIIS iter
   Number of Davidson start vectors     ....     2
   Converg. threshold    (grad. norm)   ....   1.000e-05
   Grad. Scal. Fac. for Micro threshold ....   0.100
   Minimum threshold for Micro iter.    ....   1.000e-02
   NR start threshold (gradient norm)   ....   1.000e-04
   Initial trust radius                 ....   0.400
   Minimum AH scaling param. (alpha)    ....   1.000
   Maximum AH scaling param. (alpha)    .... 1000.000
   Quad. conv. algorithm                .... NR
   White noise on init. David. guess    .... on
   Maximum white noise                  ....   0.010
   Pseudo random numbers                .... off
   Inactive MOs                         .... canonical
   Orbital update algorithm             .... Taylor
   Preconditioner                       .... Diag
   Full preconditioner red. dimension   ....   250
 SOSCF                 CNVSOSCF           .... on
   Start iteration     SOSCFMaxIt         ....   150
   Startup grad/error  SOSCFStart         ....  0.003300
   Hessian update      SOSCFHessUp        .... L-BFGS
   Autom. constraints  SOSCFAutoConstrain .... off
 Level Shifting         CNVShift        .... on
   Level shift para.    LevelShift      ....    0.2500
   Turn off err/grad.   ShiftErr        ....    0.0010
 Zerner damping         CNVZerner       .... off
 Static damping         CNVDamp         .... on
   Fraction old density DampFac         ....    0.7000
   Max. Damping (<1)    DampMax         ....    0.9800
   Min. Damping (>=0)   DampMin         ....    0.0000
   Turn off err/grad.   DampErr         ....    0.1000

SCF Procedure:
 Maximum # iterations   MaxIter         ....   125
 SCF integral mode      SCFMode         .... Direct
   Integral package                     .... SHARK and LIBINT hybrid scheme
 Reset frequency        DirectResetFreq ....    20
 Integral Threshold     Thresh          ....  2.500e-11 Eh
 Primitive CutOff       TCut            ....  2.500e-12 Eh

Convergence Tolerance:
 Convergence Check Mode ConvCheckMode   .... Total+1el-Energy
 Convergence forced     ConvForced      .... 0
 Energy Change          TolE            ....  1.000e-08 Eh
 1-El. energy change                    ....  1.000e-05 Eh
 Orbital Gradient       TolG            ....  1.000e-05
 Orbital Rotation angle TolX            ....  1.000e-05
 DIIS Error             TolErr          ....  5.000e-07

------------------------------
INITIAL GUESS: MODEL POTENTIAL
------------------------------
Loading Hartree-Fock densities                     ... done
Calculating cut-offs                               ... done
Initializing the effective Hamiltonian             ... done
Setting up the integral package (SHARK)            ... done
Starting the Coulomb interaction                   ... done (   0.0 sec)
Making the grid                                    ... done (   0.0 sec)
Mapping shells                                     ... done
Starting the XC term evaluation                    ... done (   0.0 sec)
Transforming the Hamiltonian                       ... done (   0.0 sec)
Diagonalizing the Hamiltonian                      ... done (   0.0 sec)
Back transforming the eigenvectors                 ... done (   0.0 sec)
Now organizing SCF variables                       ... done
                      ------------------
                      INITIAL GUESS DONE (   0.1 sec)
                      ------------------
             **** ENERGY FILE WAS UPDATED (ch4.en.tmp) ****
Finished Guess after   0.1 sec
Maximum memory used throughout the entire GUESS-calculation: 3.8 MB

-------------------------------------------------------------------------------------------
                                      ORCA LEAN-SCF
                              memory conserving SCF solver
-------------------------------------------------------------------------------------------

----------------------------------------D-I-I-S--------------------------------------------
Iteration    Energy (Eh)           Delta-E    RMSDP     MaxDP     DIISErr   Damp  Time(sec)
-------------------------------------------------------------------------------------------
               ***  Starting incremental Fock matrix formation  ***
    1    -40.0951635306672216     0.00e+00  3.40e-03  6.26e-02  3.10e-01  0.700   0.0
    2    -40.1366393264032695    -4.15e-02  2.61e-03  4.33e-02  1.98e-01  0.700   0.0
                               ***Turning on AO-DIIS***
    3    -40.1612873360618892    -2.46e-02  1.39e-03  1.76e-02  1.16e-01  0.700   0.0
    4    -40.1765196669864508    -1.52e-02  9.28e-04  9.80e-03  7.70e-02  0.700   0.0
    5    -40.1865844318205916    -1.01e-02  2.24e-03  2.02e-02  5.31e-02  0.000   0.0
                              *** Initializing SOSCF ***
---------------------------------------S-O-S-C-F--------------------------------------
Iteration    Energy (Eh)           Delta-E    RMSDP     MaxDP     MaxGrad    Time(sec)
--------------------------------------------------------------------------------------
    6    -40.2089566568227923    -2.24e-02  2.70e-04  2.43e-03  2.68e-03     0.0
               *** Restarting incremental Fock matrix formation ***
    7    -40.2089844781453252    -2.78e-05  1.53e-04  1.08e-03  7.24e-04     0.0
    8    -40.2089907849928636    -6.31e-06  8.89e-05  6.38e-04  2.67e-04     0.0
    9    -40.2089917095881475    -9.25e-07  4.69e-06  8.44e-05  4.38e-05     0.0
   10    -40.2089917228032192    -1.32e-08  1.20e-06  1.48e-05  1.20e-05     0.0
   11    -40.2089917238750587    -1.07e-09  6.14e-08  7.94e-07  3.32e-07     0.0
                 **** Energy Check signals convergence ****

               *****************************************************
               *                     SUCCESS                       *
               *           SCF CONVERGED AFTER  11 CYCLES          *
               *****************************************************

             **** ENERGY FILE WAS UPDATED (ch4.en.tmp) ****

----------------
TOTAL SCF ENERGY
----------------

Total Energy       :        -40.20899172400138 Eh           -1094.14229 eV

Components:
Nuclear Repulsion  :         13.47284290979114 Eh             366.61469 eV
Electronic Energy  :        -53.68183463379251 Eh           -1460.75698 eV
One Electron Energy:        -79.79086569870147 Eh           -2171.21984 eV
Two Electron Energy:         26.10903106490895 Eh             710.46285 eV

Virial components:
Potential Energy   :        -80.38074418888760 Eh           -2187.27125 eV
Kinetic Energy     :         40.17175246488623 Eh            1093.12896 eV
Virial Ratio       :          2.00092700110974

---------------
SCF CONVERGENCE
---------------

  Last Energy change         ...    1.0718e-09  Tolerance :   1.0000e-08
  Last MAX-Density change    ...    7.9420e-07  Tolerance :   1.0000e-07
  Last RMS-Density change    ...    6.1435e-08  Tolerance :   5.0000e-09
  Last DIIS Error            ...    2.6760e-03  Tolerance :   5.0000e-07
  Last Orbital Gradient      ...    3.3156e-07  Tolerance :   1.0000e-05
  Last Orbital Rotation      ...    2.5790e-07  Tolerance :   1.0000e-05


----------------
ORBITAL ENERGIES
----------------

  NO   OCC          E(Eh)            E(eV) 
   0   2.0000     -11.206355      -304.9404 
   1   2.0000      -0.943888       -25.6845 
   2   2.0000      -0.545408       -14.8413 
   3   2.0000      -0.545380       -14.8405 
   4   2.0000      -0.545371       -14.8403 
   5   0.0000       0.161991         4.4080 
   6   0.0000       0.237268         6.4564 
   7   0.0000       0.237272         6.4565 
   8   0.0000       0.237272         6.4565 
   9   0.0000       0.427393        11.6300 
  10   0.0000       0.427397        11.6301 
  11   0.0000       0.427412        11.6305 
  12   0.0000       0.756144        20.5757 
  13   0.0000       0.813320        22.1316 
  14   0.0000       0.813328        22.1318 
  15   0.0000       0.813340        22.1321 
*Only the first 10 virtual orbitals were printed.

                    ********************************
                    * MULLIKEN POPULATION ANALYSIS *
                    ********************************

-----------------------
MULLIKEN ATOMIC CHARGES
-----------------------
   0 H :    0.090139
   1 C :   -0.360515
   2 H :    0.090126
   3 H :    0.090122
   4 H :    0.090127
Sum of atomic charges:   -0.0000000

--------------------------------
MULLIKEN REDUCED ORBITAL CHARGES
--------------------------------
  0 H s       :     0.884763  s :     0.884763
      pz      :     0.013106  p :     0.025098
      px      :     0.007243
      py      :     0.004748

  1 C s       :     3.185438  s :     3.185438
      pz      :     1.043180  p :     3.129556
      px      :     1.043190
      py      :     1.043186
      dz2     :     0.007356  d :     0.045521
      dxz     :     0.008048
      dyz     :     0.012493
      dx2y2   :     0.014295
      dxy     :     0.003330

  2 H s       :     0.884778  s :     0.884778
      pz      :     0.009021  p :     0.025096
      px      :     0.004907
      py      :     0.011169

  3 H s       :     0.884782  s :     0.884782
      pz      :     0.006480  p :     0.025096
      px      :     0.005593
      py      :     0.013022

  4 H s       :     0.884776  s :     0.884776
      pz      :     0.004856  p :     0.025097
      px      :     0.015719
      py      :     0.004522



                     *******************************
                     * LOEWDIN POPULATION ANALYSIS *
                     *******************************

----------------------
LOEWDIN ATOMIC CHARGES
----------------------
   0 H :    0.002863
   1 C :   -0.011464
   2 H :    0.002869
   3 H :    0.002868
   4 H :    0.002863

-------------------------------
LOEWDIN REDUCED ORBITAL CHARGES
-------------------------------
  0 H s       :     0.929907  s :     0.929907
      pz      :     0.033932  p :     0.067229
      px      :     0.019681
      py      :     0.013617

  1 C s       :     2.761087  s :     2.761087
      pz      :     1.057771  p :     3.173334
      px      :     1.057784
      py      :     1.057779
      dz2     :     0.012449  d :     0.077043
      dxz     :     0.013621
      dyz     :     0.021143
      dx2y2   :     0.024193
      dxy     :     0.005636

  2 H s       :     0.929908  s :     0.929908
      pz      :     0.024000  p :     0.067223
      px      :     0.014001
      py      :     0.029222

  3 H s       :     0.929908  s :     0.929908
      pz      :     0.017826  p :     0.067224
      px      :     0.015670
      py      :     0.033727

  4 H s       :     0.929908  s :     0.929908
      pz      :     0.013879  p :     0.067228
      px      :     0.040282
      py      :     0.013067



                      *****************************
                      * MAYER POPULATION ANALYSIS *
                      *****************************

  NA   - Mulliken gross atomic population
  ZA   - Total nuclear charge
  QA   - Mulliken gross atomic charge
  VA   - Mayer's total valence
  BVA  - Mayer's bonded valence
  FA   - Mayer's free valence

  ATOM       NA         ZA         QA         VA         BVA        FA
  0 H      0.9099     1.0000     0.0901     0.9687     0.9687    -0.0000
  1 C      6.3605     6.0000    -0.3605     3.9553     3.9553    -0.0000
  2 H      0.9099     1.0000     0.0901     0.9687     0.9687     0.0000
  3 H      0.9099     1.0000     0.0901     0.9687     0.9687     0.0000
  4 H      0.9099     1.0000     0.0901     0.9687     0.9687    -0.0000

  Mayer bond orders larger than 0.100000
B(  0-H ,  1-C ) :   0.9888 B(  1-C ,  2-H ) :   0.9888 B(  1-C ,  3-H ) :   0.9888 
B(  1-C ,  4-H ) :   0.9888 

-------
TIMINGS
-------

Total SCF time: 0 days 0 hours 0 min 0 sec 

Total time                  ....       0.324 sec
Sum of individual times     ....       0.292 sec  ( 90.1%)

SCF preparation             ....       0.019 sec  (  5.8%)
Fock matrix formation       ....       0.233 sec  ( 72.1%)
  Startup                   ....       0.000 sec  (  0.2% of F)
  Coulomb+Exchange Fock     ....       0.250 sec  (107.0% of F)
Diagonalization             ....       0.000 sec  (  0.0%)
Density matrix formation    ....       0.025 sec  (  7.6%)
Total Energy calculation    ....       0.000 sec  (  0.1%)
Population analysis         ....       0.001 sec  (  0.4%)
Orbital Transformation      ....       0.001 sec  (  0.4%)
Orbital Orthonormalization  ....       0.000 sec  (  0.0%)
DIIS solution               ....       0.009 sec  (  2.8%)
SOSCF solution              ....       0.003 sec  (  0.8%)
Finished LeanSCF after   0.3 sec

Maximum memory used throughout the entire LEANSCF-calculation: 7.4 MB

------------------------------------------------------------------------------
                         ORCA PROPERTY INTEGRAL CALCULATIONS
------------------------------------------------------------------------------

GBWName                                   ... ch4.gbw
Number of atoms                           ...      5
Number of basis functions                 ...     42
Max core memory                           ...   4096 MB

Dipole integrals                          ... YES
Quadrupole integrals                      ...  NO
Linear momentum integrals                 ...  NO
Angular momentum integrals                ...  NO
Higher moments length integrals           ...  NO
Higher moments velocity integrals         ...  NO
Kinetic energy integrals                  ...  NO
GIAO right hand sides                     ...  NO
GIAO dipole derivative integrals          ...  NO
SOC integrals                             ...  NO
EPR diamagnetic integrals (GIAO)          ...  NO
EPR gauge integrals                       ...  NO
Field gradient integrals                  ...  NO (   0 nuclei)
Spin-dipole/Fermi contact integrals       ...  NO (   0 nuclei)
Contact density integrals                 ...  NO (   0 nuclei)
Nucleus-orbit integrals                   ...  NO (   0 nuclei)
Geometric perturbations                   ...  NO (   5 nuclei)

Choice of electric origin   ... Center of mass
Position of electric origin ... ( -0.0000, -0.0000, -0.0000) 
Choice of magnetic origin   ... GIAO
Position of magnetic origin ... (  0.0000,  0.0000,  0.0000) 

Calculating integrals                     ... Electric Dipole (Length)     done (  0.0 sec)

Property integrals calculated in   0.0 sec

Maximum memory used throughout the entire PROPINT-calculation: 4.0 MB

-------------------------   --------------------
FINAL SINGLE POINT ENERGY       -40.208991724001
-------------------------   --------------------

------------------------------------------------------------------------------
                         ORCA SCF GRADIENT CALCULATION
------------------------------------------------------------------------------

Nuc. rep. gradient        (SHARK) ... done (  0.0 sec)
HCore & Overlap gradient  (SHARK) ... done (  0.0 sec)
Two-electron gradient     (SHARK) ... done (  0.1 sec)

------------------
CARTESIAN GRADIENT
------------------

   1   H   :    0.000935366    0.000278212    0.001659591
   2   C   :    0.000005449    0.000011792    0.000039983
   3   H   :    0.000358856    0.001470100   -0.001224547
   4   H   :    0.000594832   -0.001664509   -0.000807900
   5   H   :   -0.001894504   -0.000095594    0.000332873

Difference to translation invariance:
           :   -0.0000000000    0.0000000000    0.0000000000

Difference to rotation invariance:
           :    0.0000000024   -0.0000000028    0.0000000003

Norm of the Cartesian gradient     ...    0.0038709189
RMS gradient                       ...    0.0009994670
MAX gradient                       ...    0.0018945037

-------
TIMINGS
-------

Total SCF gradient time     ....        0.100 sec

Densities                   ....       0.000 sec  (  0.0%)
One electron gradient       ....       0.007 sec  (  6.9%)
Two electron gradient       ....       0.093 sec  ( 92.9%)

Maximum memory used throughout the entire SCFGRAD-calculation: 13.2 MB
------------------------------------------------------------------------------
                         ORCA GEOMETRY RELAXATION STEP
------------------------------------------------------------------------------

Reading the OPT-File                    .... done
Getting information on internals        .... done
Copying old internal coords+grads       .... done
Making the new internal coordinates     .... (2022 redundants) done
Validating the new internal coordinates .... (2022 redundants) done
Calculating the B-matrix                .... done
Calculating the G,G- and P matrices     .... done
Transforming gradient to internals      .... done
Projecting the internal gradient        .... done
Number of atoms                         ....   5
Number of internal coordinates          ....  10
Current Energy                          ....   -40.208991724 Eh
Current gradient norm                   ....     0.003870919 Eh/bohr
Maximum allowed component of the step   ....  0.300
Current trust radius                    ....  0.300
Evaluating the initial hessian          ....  (Almloef) done
Projecting the Hessian                  .... done
Forming the augmented Hessian           .... done
Diagonalizing the augmented Hessian     .... done
Last element of RFO vector              ....  0.999943517
Lowest eigenvalues of augmented Hessian:
 -0.000041142  0.291854640  0.291858302  0.291859057  0.291859810
Length of the computed step             ....  0.010628990
The final length of the internal step   ....  0.010628990
Converting the step to Cartesian space:
 Initial RMS(Int)=    0.0033611818
Transforming coordinates:
 Iter   0:  RMS(Cart)=    0.0027443611 RMS(Int)=    0.0033611817
done
Storing new coordinates                 .... done

                                .--------------------.
          ----------------------|Geometry convergence|-------------------------
          Item                value                   Tolerance       Converged
          ---------------------------------------------------------------------
          RMS gradient        0.0012240329            0.0001000000      NO
          MAX gradient        0.0019466121            0.0003000000      NO
          RMS step            0.0033611818            0.0020000000      NO
          MAX step            0.0053456388            0.0040000000      NO
          -------------------------------------------------------------------------
          ........................................................
          Max(Bonds)      0.0028      Max(Angles)    0.00
          Max(Dihed)        0.00      Max(Improp)    0.00
          ---------------------------------------------------------------------

The optimization has not yet converged - more geometry cycles are needed


    ---------------------------------------------------------------------------
                         Redundant Internal Coordinates
                            (Angstroem and degrees)

        Definition                    Value    dE/dq     Step     New-Value
    ----------------------------------------------------------------------------
     1. B(C   1,H   0)                1.0869  0.001925 -0.0028    1.0842   
     2. B(H   2,C   1)                1.0870  0.001947 -0.0028    1.0842   
     3. B(H   3,C   1)                1.0870  0.001943 -0.0028    1.0842   
     4. B(H   4,C   1)                1.0870  0.001926 -0.0028    1.0842   
     5. A(H   0,C   1,H   3)          109.47  0.000002   -0.00    109.47   
     6. A(H   2,C   1,H   3)          109.47 -0.000009    0.00    109.47   
     7. A(H   0,C   1,H   4)          109.47  0.000006   -0.00    109.47   
     8. A(H   2,C   1,H   4)          109.47 -0.000010    0.00    109.47   
     9. A(H   3,C   1,H   4)          109.47 -0.000009    0.00    109.47   
    10. A(H   0,C   1,H   2)          109.48  0.000019   -0.00    109.48   
    ----------------------------------------------------------------------------

Geometry step timings:
Preparation and reading OPT file:      0.000 s ( 3.872 %)
Internal coordinates            :      0.000 s ( 5.239 %)
B/P matrices and projection     :      0.000 s (16.325 %)
Hessian update/contruction      :      0.000 s (16.325 %)
Making the step                 :      0.000 s (14.730 %)
Converting the step to Cartesian:      0.000 s ( 5.163 %)
Storing new data                :      0.000 s ( 5.239 %)
Checking convergence            :      0.000 s ( 9.188 %)
Final printing                  :      0.000 s (23.842 %)
Total time                      :      0.001 s

Time for energy+gradient        :      0.778 s
Time for complete geometry iter :      0.799 s

         *************************************************************
         *                GEOMETRY OPTIMIZATION CYCLE   2            *
         *************************************************************
---------------------------------
CARTESIAN COORDINATES (ANGSTROEM)
---------------------------------
  H      0.527435    0.160598    0.933465
  C     -0.000008   -0.000009   -0.000021
  H      0.204586    0.821866   -0.676822
  H      0.333640   -0.928991   -0.448436
  H     -1.065753   -0.053564    0.191614

----------------------------
CARTESIAN COORDINATES (A.U.)
----------------------------
  NO LB      ZA    FRAG     MASS         X           Y           Z
   0 H     1.0000    0     1.008    0.996708    0.303487    1.763993
   1 C     6.0000    0    12.011   -0.000016   -0.000017   -0.000039
   2 H     1.0000    0     1.008    0.386612    1.553102   -1.279008
   3 H     1.0000    0     1.008    0.630488   -1.755539   -0.847421
   4 H     1.0000    0     1.008   -2.013980   -0.101222    0.362098

--------------------------------
INTERNAL COORDINATES (ANGSTROEM)
--------------------------------
 H      0   0   0     0.000000000000     0.00000000     0.00000000
 C      1   0   0     1.084152183708     0.00000000     0.00000000
 H      2   1   0     1.084157856421   109.47512272     0.00000000
 H      2   1   3     1.084160777726   109.47182175   119.99999359
 H      2   1   3     1.084159924821   109.47302694   239.99908074

---------------------------
INTERNAL COORDINATES (A.U.)
---------------------------
 H      0   0   0     0.000000000000     0.00000000     0.00000000
 C      1   0   0     2.048750714701     0.00000000     0.00000000
 H      2   1   0     2.048761434575   109.47512272     0.00000000
 H      2   1   3     2.048766955042   109.47182175   119.99999359
 H      2   1   3     2.048765343285   109.47302694   239.99908074

------------------------------------------------------------------------------
                   ___                                                        
                  /   \      - P O W E R E D   B Y -                         
                 /     \                                                     
                 |  |  |   _    _      __       _____    __    __             
                 |  |  |  | |  | |    /  \     |  _  \  |  |  /  |          
                  \  \/   | |  | |   /    \    | | | |  |  | /  /          
                 / \  \   | |__| |  /  /\  \   | |_| |  |  |/  /          
                |  |  |   |  __  | /  /__\  \  |    /   |      \           
                |  |  |   | |  | | |   __   |  |    \   |  |\   \          
                \     /   | |  | | |  |  |  |  | |\  \  |  | \   \       
                 \___/    |_|  |_| |__|  |__|  |_| \__\ |__|  \__/        
                                                                              
                      - O R C A' S   B I G   F R I E N D -                    
                                      &                                       
                       - I N T E G R A L  F E E D E R -                       
                                                                              
 v1 FN, 2020, v2 2021, v3 2022-2024                                           
------------------------------------------------------------------------------


----------------------
SHARK INTEGRAL PACKAGE
----------------------

Number of atoms                             ...      5
Number of basis functions                   ...     42
Number of shells                            ...     24
Maximum angular momentum                    ...      2
Integral batch strategy                     ... SHARK/LIBINT Hybrid
RI-J (if used) integral strategy            ... SPLIT-RIJ (Revised 2003 algorithm where possible)
Printlevel                                  ...      1
Contraction scheme used                     ... SEGMENTED contraction
Prescreening option                         ... SCHWARTZ
   Thresh                                   ... 2.500e-11
   Tcut                                     ... 2.500e-12
   Tpresel                                  ... 2.500e-12 
Coulomb Range Separation                    ... NOT USED
Exchange Range Separation                   ... NOT USED
Multipole approximations                    ... NOT USED
Finite Nucleus Model                        ... NOT USED
CABS basis                                  ... NOT available
Auxiliary Coulomb fitting basis             ... NOT available
Auxiliary J/K fitting basis                 ... NOT available
Auxiliary Correlation fitting basis         ... NOT available
Auxiliary 'external' fitting basis          ... NOT available

Checking pre-screening integrals            ... done (  0.0 sec) Dimension = 24
   => SHARK Basis and OBASIS are compatible. Storing Pre-screening
Shell pair information
Shell pair cut-off parameter TPreSel        ...   2.5e-12
Total number of shell pairs                 ...       300
Shell pairs after pre-screening             ...       300
Total number of primitive shell pairs       ...       894
Primitive shell pairs kept                  ...       842
          la=0 lb=0:    136 shell pairs
          la=1 lb=0:    112 shell pairs
          la=1 lb=1:     28 shell pairs
          la=2 lb=0:     16 shell pairs
          la=2 lb=1:      7 shell pairs
          la=2 lb=2:      1 shell pairs

Checking whether 4 symmetric matrices of dimension 42 fit in memory
:Max Core in MB      =   4096.00
 MB in use           =      1.56
 MB left             =   4094.44
 MB needed           =      0.03
 Data fit in memory  = YES
Calculating Nuclear repulsion               ... done (  0.0 sec) ENN=     13.507789881429 Eh

Diagonalization of the overlap matrix:
Smallest eigenvalue                        ... 1.247e-02
Time for diagonalization                   ...    0.000 sec
Threshold for overlap eigenvalues          ... 1.000e-07
Number of eigenvalues below threshold      ... 0
Time for construction of square roots      ...    0.000 sec
Total time needed                          ...    0.001 sec

-------------------
DFT GRID GENERATION
-------------------

General Integration Accuracy     IntAcc      ... 4.388
Radial Grid Type                 RadialGrid  ... OptM3 with GC (2021)
Angular Grid (max. ang.)         AngularGrid ... 4 (Lebedev-302)
Angular grid pruning method      GridPruning ... 4 (adaptive)
Weight generation scheme         WeightScheme... mBecke (2022)
Basis function cutoff            BFCut       ... 1.0000e-11
Integration weight cutoff        WCut        ... 1.0000e-14
Partially contracted basis set               ... off
Rotationally invariant grid construction     ... off
Angular grids for H and He will be reduced by one unit

Total number of grid points                  ...    19252
Total number of batches                      ...      303
Average number of points per batch           ...       63
Average number of grid points per atom       ...     3850
Grids setup in   0.1 sec
Initializing property integral containers    ... done (  0.0 sec)

SHARK setup successfully completed in   0.1 seconds

Maximum memory used throughout the entire STARTUP-calculation: 7.7 MB
Occupation numbers will be reassigned to an Aufbau configuration
             **** ENERGY FILE WAS UPDATED (ch4.en.tmp) ****
Finished Guess after   0.0 sec
Maximum memory used throughout the entire GUESS-calculation: 3.9 MB
----------------------------------------D-I-I-S--------------------------------------------
Iteration    Energy (Eh)           Delta-E    RMSDP     MaxDP     DIISErr   Damp  Time(sec)
-------------------------------------------------------------------------------------------
               ***  Starting incremental Fock matrix formation  ***
                              *** Initializing SOSCF ***
---------------------------------------S-O-S-C-F--------------------------------------
Iteration    Energy (Eh)           Delta-E    RMSDP     MaxDP     MaxGrad    Time(sec)
--------------------------------------------------------------------------------------
    1    -40.2090066757172764     0.00e+00  6.51e-05  8.19e-04  9.42e-05     0.0
               *** Restarting incremental Fock matrix formation ***
    2    -40.2090113844837020    -4.71e-06  2.36e-05  3.97e-04  3.17e-04     0.0
    3    -40.2090116603548751    -2.76e-07  8.10e-06  8.07e-05  4.38e-05     0.0
    4    -40.2090116795046626    -1.91e-08  9.95e-07  1.06e-05  1.14e-05     0.0
    5    -40.2090116802869559    -7.82e-10  2.05e-07  1.85e-06  1.59e-06     0.0
                 **** Energy Check signals convergence ****

               *****************************************************
               *                     SUCCESS                       *
               *           SCF CONVERGED AFTER   5 CYCLES          *
               *****************************************************

             **** ENERGY FILE WAS UPDATED (ch4.en.tmp) ****

----------------
TOTAL SCF ENERGY
----------------

Total Energy       :        -40.20901168027370 Eh           -1094.14283 eV

Components:
Nuclear Repulsion  :         13.50778988142930 Eh             367.56565 eV
Electronic Energy  :        -53.71680156170301 Eh           -1461.70848 eV
One Electron Energy:        -79.85691693089301 Eh           -2173.01718 eV
Two Electron Energy:         26.14011536919000 Eh             711.30870 eV

Virial components:
Potential Energy   :        -80.39684787983217 Eh           -2187.70945 eV
Kinetic Energy     :         40.18783619955847 Eh            1093.56662 eV
Virial Ratio       :          2.00052691268597

---------------
SCF CONVERGENCE
---------------

  Last Energy change         ...    7.8229e-10  Tolerance :   1.0000e-08
  Last MAX-Density change    ...    1.8543e-06  Tolerance :   1.0000e-07
  Last RMS-Density change    ...    2.0477e-07  Tolerance :   5.0000e-09
  Last DIIS Error            ...    1.5355e-03  Tolerance :   5.0000e-07
  Last Orbital Gradient      ...    1.5867e-06  Tolerance :   1.0000e-05
  Last Orbital Rotation      ...    9.5419e-07  Tolerance :   1.0000e-05


Total SCF time: 0 days 0 hours 0 min 0 sec 
Finished LeanSCF after   0.2 sec

Maximum memory used throughout the entire LEANSCF-calculation: 7.4 MB

------------------------------------------------------------------------------
                         ORCA PROPERTY INTEGRAL CALCULATIONS
------------------------------------------------------------------------------

GBWName                                   ... ch4.gbw
Number of atoms                           ...      5
Number of basis functions                 ...     42
Max core memory                           ...   4096 MB

Dipole integrals                          ... YES
Quadrupole integrals                      ...  NO
Linear momentum integrals                 ...  NO
Angular momentum integrals                ...  NO
Higher moments length integrals           ...  NO
Higher moments velocity integrals         ...  NO
Kinetic energy integrals                  ...  NO
GIAO right hand sides                     ...  NO
GIAO dipole derivative integrals          ...  NO
SOC integrals                             ...  NO
EPR diamagnetic integrals (GIAO)          ...  NO
EPR gauge integrals                       ...  NO
Field gradient integrals                  ...  NO (   0 nuclei)
Spin-dipole/Fermi contact integrals       ...  NO (   0 nuclei)
Contact density integrals                 ...  NO (   0 nuclei)
Nucleus-orbit integrals                   ...  NO (   0 nuclei)
Geometric perturbations                   ...  NO (   5 nuclei)

Choice of electric origin   ... Center of mass
Position of electric origin ... ( -0.0000, -0.0000, -0.0001) 
Choice of magnetic origin   ... GIAO
Position of magnetic origin ... (  0.0000,  0.0000,  0.0000) 

Calculating integrals                     ... Electric Dipole (Length)     done (  0.0 sec)

Property integrals calculated in   0.0 sec

Maximum memory used throughout the entire PROPINT-calculation: 4.0 MB

-------------------------   --------------------
FINAL SINGLE POINT ENERGY       -40.209011680274
-------------------------   --------------------

------------------------------------------------------------------------------
                         ORCA SCF GRADIENT CALCULATION
------------------------------------------------------------------------------

Nuc. rep. gradient        (SHARK) ... done (  0.0 sec)
HCore & Overlap gradient  (SHARK) ... done (  0.0 sec)
Two-electron gradient     (SHARK) ... done (  0.1 sec)

------------------
CARTESIAN GRADIENT
------------------

   1   H   :   -0.000031647   -0.000013017   -0.000054897
   2   C   :    0.000008119    0.000007416    0.000013009
   3   H   :   -0.000016012   -0.000050836    0.000034197
   4   H   :   -0.000020674    0.000053704    0.000023052
   5   H   :    0.000060215    0.000002733   -0.000015362

Difference to translation invariance:
           :   -0.0000000000   -0.0000000000   -0.0000000000

Difference to rotation invariance:
           :   -0.0000000000   -0.0000000000    0.0000000000

Norm of the Cartesian gradient     ...    0.0001272679
RMS gradient                       ...    0.0000328604
MAX gradient                       ...    0.0000602148

-------
TIMINGS
-------

Total SCF gradient time     ....        0.114 sec

Densities                   ....       0.000 sec  (  0.0%)
One electron gradient       ....       0.007 sec  (  6.0%)
Two electron gradient       ....       0.107 sec  ( 93.9%)

Maximum memory used throughout the entire SCFGRAD-calculation: 13.2 MB
------------------------------------------------------------------------------
                         ORCA GEOMETRY RELAXATION STEP
------------------------------------------------------------------------------

Reading the OPT-File                    .... done
Getting information on internals        .... done
Copying old internal coords+grads       .... done
Making the new internal coordinates     .... (2022 redundants) done
Validating the new internal coordinates .... (2022 redundants) done
Calculating the B-matrix                .... done
Calculating the G,G- and P matrices     .... done
Transforming gradient to internals      .... done
Projecting the internal gradient        .... done
Number of atoms                         ....   5
Number of internal coordinates          ....  10
Current Energy                          ....   -40.209011680 Eh
Current gradient norm                   ....     0.000127268 Eh/bohr
Maximum allowed component of the step   ....  0.300
Current trust radius                    ....  0.300
Updating the Hessian (BFGS)             .... done
Forming the augmented Hessian           .... done
Diagonalizing the augmented Hessian     .... done
Last element of RFO vector              ....  0.999999943
Lowest eigenvalues of augmented Hessian:
 -0.000000043  0.291826490  0.291855262  0.291858326  0.291859717
Length of the computed step             ....  0.000337353
The final length of the internal step   ....  0.000337353
Converting the step to Cartesian space:
 Initial RMS(Int)=    0.0001066803
Transforming coordinates:
 Iter   0:  RMS(Cart)=    0.0000870209 RMS(Int)=    0.0001066803
done
Storing new coordinates                 .... done
The predicted energy change is          ....    -0.000000021
Previously predicted energy change      ....    -0.000020573
Actually observed energy change         ....    -0.000019956
Ratio of predicted to observed change   ....     0.970009172
New trust radius                        ....     0.450000000

                                .--------------------.
          ----------------------|Geometry convergence|-------------------------
          Item                value                   Tolerance       Converged
          ---------------------------------------------------------------------
          Energy change      -0.0000199563            0.0000050000      NO
          RMS gradient        0.0000400008            0.0001000000      YES
          MAX gradient        0.0000645925            0.0003000000      YES
          RMS step            0.0001066803            0.0020000000      YES
          MAX step            0.0001716918            0.0040000000      YES
          -------------------------------------------------------------------------
          ........................................................
          Max(Bonds)      0.0001      Max(Angles)    0.00
          Max(Dihed)        0.00      Max(Improp)    0.00
          ---------------------------------------------------------------------

       Everything but the energy has converged. However, the energy
       appears to be close enough to convergence to make sure that the
       final evaluation at the new geometry represents the equilibrium energy.
       Convergence will therefore be signaled now


                    ***********************HURRAY********************
                    ***        THE OPTIMIZATION HAS CONVERGED     ***
                    *************************************************


    ---------------------------------------------------------------------------
                         Redundant Internal Coordinates

                          --- Optimized Parameters ---  
                            (Angstroem and degrees)

        Definition                    OldVal   dE/dq     Step     FinalVal
    ----------------------------------------------------------------------------
     1. B(C   1,H   0)                1.0842 -0.000065  0.0001    1.0842   
     2. B(H   2,C   1)                1.0842 -0.000063  0.0001    1.0842   
     3. B(H   3,C   1)                1.0842 -0.000062  0.0001    1.0842   
     4. B(H   4,C   1)                1.0842 -0.000062  0.0001    1.0842   
     5. A(H   0,C   1,H   3)          109.47  0.000001   -0.00    109.47   
     6. A(H   2,C   1,H   3)          109.47 -0.000005    0.00    109.47   
     7. A(H   0,C   1,H   4)          109.47  0.000004   -0.00    109.47   
     8. A(H   2,C   1,H   4)          109.47 -0.000005    0.00    109.47   
     9. A(H   3,C   1,H   4)          109.47 -0.000004    0.00    109.47   
    10. A(H   0,C   1,H   2)          109.48  0.000010   -0.00    109.47   
    ----------------------------------------------------------------------------

Geometry step timings:
Preparation and reading OPT file:      0.000 s ( 3.684 %)
Internal coordinates            :      0.000 s ( 4.386 %)
B/P matrices and projection     :      0.000 s (17.544 %)
Hessian update/contruction      :      0.000 s (23.333 %)
Making the step                 :      0.000 s (10.175 %)
Converting the step to Cartesian:      0.000 s ( 4.386 %)
Storing new data                :      0.000 s ( 4.561 %)
Checking convergence            :      0.000 s (11.754 %)
Final printing                  :      0.000 s (20.175 %)
Total time                      :      0.001 s
                 *******************************************************
                 *** FINAL ENERGY EVALUATION AT THE STATIONARY POINT ***
                 ***               (AFTER    2 CYCLES)               ***
                 *******************************************************
---------------------------------
CARTESIAN COORDINATES (ANGSTROEM)
---------------------------------
  H      0.527474    0.160617    0.933532
  C     -0.000014   -0.000014   -0.000029
  H      0.204611    0.821939   -0.676869
  H      0.333669   -0.929073   -0.448471
  H     -1.065841   -0.053570    0.191637

----------------------------
CARTESIAN COORDINATES (A.U.)
----------------------------
  NO LB      ZA    FRAG     MASS         X           Y           Z
   0 H     1.0000    0     1.008    0.996782    0.303522    1.764120
   1 C     6.0000    0    12.011   -0.000026   -0.000027   -0.000056
   2 H     1.0000    0     1.008    0.386659    1.553240   -1.279096
   3 H     1.0000    0     1.008    0.630544   -1.755693   -0.847487
   4 H     1.0000    0     1.008   -2.014147   -0.101232    0.362141

--------------------------------
INTERNAL COORDINATES (ANGSTROEM)
--------------------------------
 H      0   0   0     0.000000000000     0.00000000     0.00000000
 C      1   0   0     1.084243039075     0.00000000     0.00000000
 H      2   1   0     1.084246350679   109.47330650     0.00000000
 H      2   1   3     1.084247874481   109.47157415   120.00000393
 H      2   1   3     1.084247193586   109.47220847   239.99948486

---------------------------
INTERNAL COORDINATES (A.U.)
---------------------------
 H      0   0   0     0.000000000000     0.00000000     0.00000000
 C      1   0   0     2.048922406462     0.00000000     0.00000000
 H      2   1   0     2.048928664487   109.47330650     0.00000000
 H      2   1   3     2.048931544056   109.47157415   120.00000393
 H      2   1   3     2.048930257350   109.47220847   239.99948486

---------------------
BASIS SET INFORMATION
---------------------
There are 2 groups of distinct atoms

 Group   1 Type H   : 5s1p contracted to 3s1p pattern {311/1}
 Group   2 Type C   : 11s5p1d contracted to 4s3p1d pattern {6311/311/1}

Atom   0H    basis set group =>   1
Atom   1C    basis set group =>   2
Atom   2H    basis set group =>   1
Atom   3H    basis set group =>   1
Atom   4H    basis set group =>   1
------------------------------------------------------------------------------
                             ORCA STARTUP CALCULATIONS
------------------------------------------------------------------------------
------------------------------------------------------------------------------
                   ___                                                        
                  /   \      - P O W E R E D   B Y -                         
                 /     \                                                     
                 |  |  |   _    _      __       _____    __    __             
                 |  |  |  | |  | |    /  \     |  _  \  |  |  /  |          
                  \  \/   | |  | |   /    \    | | | |  |  | /  /          
                 / \  \   | |__| |  /  /\  \   | |_| |  |  |/  /          
                |  |  |   |  __  | /  /__\  \  |    /   |      \           
                |  |  |   | |  | | |   __   |  |    \   |  |\   \          
                \     /   | |  | | |  |  |  |  | |\  \  |  | \   \       
                 \___/    |_|  |_| |__|  |__|  |_| \__\ |__|  \__/        
                                                                              
                      - O R C A' S   B I G   F R I E N D -                    
                                      &                                       
                       - I N T E G R A L  F E E D E R -                       
                                                                              
 v1 FN, 2020, v2 2021, v3 2022-2024                                           
------------------------------------------------------------------------------


----------------------
SHARK INTEGRAL PACKAGE
----------------------

Number of atoms                             ...      5
Number of basis functions                   ...     42
Number of shells                            ...     24
Maximum angular momentum                    ...      2
Integral batch strategy                     ... SHARK/LIBINT Hybrid
RI-J (if used) integral strategy            ... SPLIT-RIJ (Revised 2003 algorithm where possible)
Printlevel                                  ...      1
Contraction scheme used                     ... SEGMENTED contraction
Prescreening option                         ... SCHWARTZ
   Thresh                                   ... 2.500e-11
   Tcut                                     ... 2.500e-12
   Tpresel                                  ... 2.500e-12 
Coulomb Range Separation                    ... NOT USED
Exchange Range Separation                   ... NOT USED
Multipole approximations                    ... NOT USED
Finite Nucleus Model                        ... NOT USED
CABS basis                                  ... NOT available
Auxiliary Coulomb fitting basis             ... NOT available
Auxiliary J/K fitting basis                 ... NOT available
Auxiliary Correlation fitting basis         ... NOT available
Auxiliary 'external' fitting basis          ... NOT available

Checking pre-screening integrals            ... done (  0.0 sec) Dimension = 24
   => SHARK Basis and OBASIS are compatible. Storing Pre-screening
Shell pair information
Shell pair cut-off parameter TPreSel        ...   2.5e-12
Total number of shell pairs                 ...       300
Shell pairs after pre-screening             ...       300
Total number of primitive shell pairs       ...       894
Primitive shell pairs kept                  ...       842
          la=0 lb=0:    136 shell pairs
          la=1 lb=0:    112 shell pairs
          la=1 lb=1:     28 shell pairs
          la=2 lb=0:     16 shell pairs
          la=2 lb=1:      7 shell pairs
          la=2 lb=2:      1 shell pairs

Checking whether 4 symmetric matrices of dimension 42 fit in memory
:Max Core in MB      =   4096.00
 MB in use           =      1.56
 MB left             =   4094.44
 MB needed           =      0.03
 Data fit in memory  = YES
Calculating Nuclear repulsion               ... done (  0.0 sec) ENN=     13.506688214173 Eh

Diagonalization of the overlap matrix:
Smallest eigenvalue                        ... 1.248e-02
Time for diagonalization                   ...    0.000 sec
Threshold for overlap eigenvalues          ... 1.000e-07
Number of eigenvalues below threshold      ... 0
Time for construction of square roots      ...    0.000 sec
Total time needed                          ...    0.001 sec

-------------------
DFT GRID GENERATION
-------------------

General Integration Accuracy     IntAcc      ... 4.388
Radial Grid Type                 RadialGrid  ... OptM3 with GC (2021)
Angular Grid (max. ang.)         AngularGrid ... 4 (Lebedev-302)
Angular grid pruning method      GridPruning ... 4 (adaptive)
Weight generation scheme         WeightScheme... mBecke (2022)
Basis function cutoff            BFCut       ... 1.0000e-11
Integration weight cutoff        WCut        ... 1.0000e-14
Partially contracted basis set               ... off
Rotationally invariant grid construction     ... off
Angular grids for H and He will be reduced by one unit

Total number of grid points                  ...    19252
Total number of batches                      ...      303
Average number of points per batch           ...       63
Average number of grid points per atom       ...     3850
Grids setup in   0.1 sec
Initializing property integral containers    ... done (  0.0 sec)

SHARK setup successfully completed in   0.1 seconds

Maximum memory used throughout the entire STARTUP-calculation: 7.7 MB
-------------------------------------------------------------------------------
                                 ORCA GUESS
                   Start orbitals & Density for SCF / CASSCF
-------------------------------------------------------------------------------

------------
SCF SETTINGS
------------
Hamiltonian:
 Ab initio Hamiltonian  Method          .... Hartree-Fock(GTOs)


General Settings:
 Integral files         IntName         .... ch4
 Hartree-Fock type      HFTyp           .... RHF
 Total Charge           Charge          ....    0
 Multiplicity           Mult            ....    1
 Number of Electrons    NEL             ....   10
 Basis Dimension        Dim             ....   42
 Nuclear Repulsion      ENuc            ....     13.5066882142 Eh

Convergence Acceleration:
 AO-DIIS                CNVDIIS         .... on
   Start iteration      DIISMaxIt       ....    12
   Startup error        DIISStart       ....  0.200000
   # of expansion vecs  DIISMaxEq       ....     5
   Bias factor          DIISBfac        ....   1.050
   Max. coefficient     DIISMaxC        ....  10.000
 MO-DIIS                CNVKDIIS        .... off
 Trust-Rad. Augm. Hess. CNVTRAH         .... auto
   Auto Start mean grad. ratio tolernc. ....  1.125000
   Auto Start start iteration           ....     1
   Auto Start num. interpolation iter.  ....    10
   Max. Number of Micro iterations      ....    24
   Max. Number of Macro iterations      .... Maxiter - #DIIS iter
   Number of Davidson start vectors     ....     2
   Converg. threshold    (grad. norm)   ....   1.000e-05
   Grad. Scal. Fac. for Micro threshold ....   0.100
   Minimum threshold for Micro iter.    ....   1.000e-02
   NR start threshold (gradient norm)   ....   1.000e-04
   Initial trust radius                 ....   0.400
   Minimum AH scaling param. (alpha)    ....   1.000
   Maximum AH scaling param. (alpha)    .... 1000.000
   Quad. conv. algorithm                .... NR
   White noise on init. David. guess    .... on
   Maximum white noise                  ....   0.010
   Pseudo random numbers                .... off
   Inactive MOs                         .... canonical
   Orbital update algorithm             .... Taylor
   Preconditioner                       .... Diag
   Full preconditioner red. dimension   ....   250
 SOSCF                 CNVSOSCF           .... on
   Start iteration     SOSCFMaxIt         ....   150
   Startup grad/error  SOSCFStart         ....  0.003300
   Hessian update      SOSCFHessUp        .... L-BFGS
   Autom. constraints  SOSCFAutoConstrain .... off
 Level Shifting         CNVShift        .... on
   Level shift para.    LevelShift      ....    0.2500
   Turn off err/grad.   ShiftErr        ....    0.0010
 Zerner damping         CNVZerner       .... off
 Static damping         CNVDamp         .... on
   Fraction old density DampFac         ....    0.7000
   Max. Damping (<1)    DampMax         ....    0.9800
   Min. Damping (>=0)   DampMin         ....    0.0000
   Turn off err/grad.   DampErr         ....    0.1000

SCF Procedure:
 Maximum # iterations   MaxIter         ....   125
 SCF integral mode      SCFMode         .... Direct
   Integral package                     .... SHARK and LIBINT hybrid scheme
 Reset frequency        DirectResetFreq ....    20
 Integral Threshold     Thresh          ....  2.500e-11 Eh
 Primitive CutOff       TCut            ....  2.500e-12 Eh

Convergence Tolerance:
 Convergence Check Mode ConvCheckMode   .... Total+1el-Energy
 Convergence forced     ConvForced      .... 0
 Energy Change          TolE            ....  1.000e-08 Eh
 1-El. energy change                    ....  1.000e-05 Eh
 Orbital Gradient       TolG            ....  1.000e-05
 Orbital Rotation angle TolX            ....  1.000e-05
 DIIS Error             TolErr          ....  5.000e-07

---------------------
INITIAL GUESS: MOREAD
---------------------
Guess MOs are being read from file: ch4.gbw
Input Geometry matches current geometry (good)
Input basis set matches current basis set (good)
Occupation numbers will be reassigned to an Aufbau configuration
MOs were renormalized
MOs were reorthogonalized (Cholesky)
                      ------------------
                      INITIAL GUESS DONE (   0.0 sec)
                      ------------------
             **** ENERGY FILE WAS UPDATED (ch4.en.tmp) ****
Finished Guess after   0.0 sec
Maximum memory used throughout the entire GUESS-calculation: 3.9 MB

-------------------------------------------------------------------------------------------
                                      ORCA LEAN-SCF
                              memory conserving SCF solver
-------------------------------------------------------------------------------------------

----------------------------------------D-I-I-S--------------------------------------------
Iteration    Energy (Eh)           Delta-E    RMSDP     MaxDP     DIISErr   Damp  Time(sec)
-------------------------------------------------------------------------------------------
               ***  Starting incremental Fock matrix formation  ***
                              *** Initializing SOSCF ***
---------------------------------------S-O-S-C-F--------------------------------------
Iteration    Energy (Eh)           Delta-E    RMSDP     MaxDP     MaxGrad    Time(sec)
--------------------------------------------------------------------------------------
    1    -40.2090116966528939     0.00e+00  2.05e-06  2.56e-05  3.22e-06     0.0
               *** Restarting incremental Fock matrix formation ***
    2    -40.2090117013487856    -4.70e-09  7.45e-07  1.25e-05  1.00e-05     0.0
    3    -40.2090117016220177    -2.73e-10  2.57e-07  2.50e-06  1.39e-06     0.0
                 **** Energy Check signals convergence ****

               *****************************************************
               *                     SUCCESS                       *
               *           SCF CONVERGED AFTER   3 CYCLES          *
[...]
----------------------------

  ITERATION   0:   ||err||_max =   8.0481e-02 (   0.1 sec   0/ 15 done)
  ITERATION   1:   ||err||_max =   1.2884e-02 (   0.1 sec   0/ 15 done)
  ITERATION   2:   ||err||_max =   2.1928e-03 (   0.1 sec   0/ 15 done)
  ITERATION   3:   ||err||_max =   2.7142e-04 (   0.1 sec   3/ 15 done)
  ITERATION   4:   ||err||_max =   3.0140e-05 (   0.1 sec  15/ 15 done)

CP-SCF equations solved in   0.7 sec
Response densities calculated in   0.0 sec

Maximum memory used throughout the entire SCFRESP-calculation: 7.8 MB

------------------------------------------------------------------------------
                              ORCA PROPERTY CALCULATIONS
------------------------------------------------------------------------------

GBWName                                 ... ch4.gbw
Number of atoms                         ...      5
Number of basis functions               ...     42
Max core memory                         ...   4096 MB

Electric properties:
Dipole moment                           ... YES
Quadrupole moment                       ...  NO
Static polarizability (Dipole/Dipole)   ...  NO
Static polarizability (Dipole/Quad.)    ...  NO
Static polarizability (Quad./Quad.)     ...  NO
Static polarizability (Velocity)        ...  NO
Static hyperpolarizability              ...  NO

Atomic electric properties:
Dipole moment                           ...  NO
Quadrupole moment                       ...  NO
Static polarizability                   ...  NO

Choice of electric origin               ... Center of mass
Position of electric origin             ...    -0.000030    -0.000030    -0.000062

General magnetic properties:
Magnetizability                         ...  NO

EPR properties:
g-Tensor (aka g-matrix)                 ...  NO
Zero-Field splitting spin-orbit         ...  NO
Zero-field splitting spin-spin          ...  NO
Hyperfine couplings                     ...  NO (   0 nuclei)
Quadrupole couplings                    ...  NO (   0 nuclei)
Contact density                         ...  NO (   0 nuclei)

NMR properties:
Chemical shifts                         ...  NO (   0 nuclei)
Spin-rotation constants                 ...  NO (   0 nuclei)
Spin-spin couplings                     ...  NO (   0 nuclei,    0 pairs)

Choice of magnetic origin               ... GIAO
Position of magnetic origin             ...     0.000000     0.000000     0.000000

Properties with geometric perturbations:
SCF Hessian                             ... YES
IR spectrum                             ... YES
VCD spectrum                            ...  NO
X-ray spectroscopy properties:
SCF XES/XAS/RIXS spectra                ...  NO

SCF SOC stabilization energy            ...  NO
Diagonal Born-Oppenheimer correction    ...  NO

-------------
DIPOLE MOMENT
-------------

Method             : SCF
Type of density    : Electron Density
Multiplicity       :   1
Irrep              :   0
Energy             :   -40.2090117016836217 Eh
Basis              : AO
                                X                 Y                 Z
Electronic contribution:      0.000019483       0.000018068       0.000032486
Nuclear contribution   :     -0.000022254      -0.000020636      -0.000037101
                        -----------------------------------------
Total Dipole Moment    :     -0.000002771      -0.000002569      -0.000004614
                        -----------------------------------------
Magnitude (a.u.)       :      0.000005964
Magnitude (Debye)      :      0.000015159



--------------------
Rotational spectrum 
--------------------
 
Rotational constants in cm-1:             5.334794             5.334689             5.334672 
Rotational constants in MHz :        159933.103316        159929.964804        159929.445878 

Dipole components along the rotational axes: 
x,y,z [a.u.] :    -0.000005    -0.000000     0.000003 
x,y,z [Debye]:    -0.000013    -0.000001     0.000008 

 

Dipole moment calculation done in   0.0 sec 

-----------
SCF HESSIAN
-----------

Occupied/Occupied contributions to the Hessian:
   => Occupied/Occupied contributions              ... done (  0.0 sec)
Perturbed density contributions to the Hessian:
   => Perturbed density contributions              ... done (  0.0 sec)
Explicit contributions to the Hessian:
   => Nuclear repulsion Hessian                    ... done (  0.0 sec)
   => HCore and overlap Hessian                    ... done (  0.1 sec)
   => Exact two electron integral Hessian          ... done (  0.8 sec)
   => Explicit contributions done
Dipole derivatives                                 ... done (  0.0 sec)
Mass weighting the Hessian           ... done
Calculating normal modes             ... done
Scaling frequencies                  ... done

-----------------------
VIBRATIONAL FREQUENCIES
-----------------------

Scaling factor for frequencies =  1.000000000  (already applied!)

     0:       0.00 cm**-1
     1:       0.00 cm**-1
     2:       0.00 cm**-1
     3:       0.00 cm**-1
     4:       0.00 cm**-1
     5:       0.00 cm**-1
     6:    1453.00 cm**-1
     7:    1453.00 cm**-1
     8:    1453.03 cm**-1
     9:    1667.59 cm**-1
    10:    1667.59 cm**-1
    11:    3150.48 cm**-1
    12:    3253.56 cm**-1
    13:    3253.57 cm**-1
    14:    3253.60 cm**-1


------------
NORMAL MODES
------------

These modes are the Cartesian displacements weighted by the diagonal matrix
M(i,i)=1/sqrt(m[i]) where m[i] is the mass of the displaced atom
Thus, these vectors are normalized but *not* orthogonal

                  0          1          2          3          4          5    
      0       0.000000   0.000000   0.000000   0.000000   0.000000   0.000000
      1       0.000000   0.000000   0.000000   0.000000   0.000000   0.000000
      2       0.000000   0.000000   0.000000   0.000000   0.000000   0.000000
      3       0.000000   0.000000   0.000000   0.000000   0.000000   0.000000
      4       0.000000   0.000000   0.000000   0.000000   0.000000   0.000000
      5       0.000000   0.000000   0.000000   0.000000   0.000000   0.000000
      6       0.000000   0.000000   0.000000   0.000000   0.000000   0.000000
      7       0.000000   0.000000   0.000000   0.000000   0.000000   0.000000
      8       0.000000   0.000000   0.000000   0.000000   0.000000   0.000000
      9       0.000000   0.000000   0.000000   0.000000   0.000000   0.000000
     10       0.000000   0.000000   0.000000   0.000000   0.000000   0.000000
     11       0.000000   0.000000   0.000000   0.000000   0.000000   0.000000
     12       0.000000   0.000000   0.000000   0.000000   0.000000   0.000000
     13       0.000000   0.000000   0.000000   0.000000   0.000000   0.000000
     14       0.000000   0.000000   0.000000   0.000000   0.000000   0.000000
                  6          7          8          9         10         11    
      0       0.271250  -0.449333  -0.071150  -0.250653   0.357751   0.243206
      1      -0.534427  -0.251045  -0.091387  -0.379876  -0.316525   0.074064
      2      -0.051356   0.309100  -0.051830   0.206992  -0.147677   0.430430
      3      -0.049588   0.100485  -0.054660  -0.000002   0.000001   0.000007
      4       0.112267   0.054175  -0.002254  -0.000002  -0.000001   0.000005
      5       0.021935  -0.050117  -0.112030   0.000001  -0.000001   0.000009
      6       0.305755  -0.390330   0.325963  -0.219831  -0.439057   0.094367
      7      -0.280576   0.124973   0.256602  -0.251585   0.207443   0.379049
      8      -0.323046  -0.076238   0.340416  -0.371991   0.119181  -0.312121
      9       0.032627  -0.477754   0.318951   0.444589   0.169334   0.153896
     10       0.034119  -0.287521  -0.139865   0.206875  -0.153789  -0.428479
     11       0.172717   0.230666   0.469931  -0.097776   0.444616  -0.206816
     12      -0.018763   0.120070   0.077543   0.025916  -0.088038  -0.491546
     13      -0.556855  -0.231944   0.001512   0.424610   0.262887  -0.024698
     14      -0.059686   0.133649   0.576398   0.262759  -0.416102   0.088398
                 12         13         14    
      0      -0.038991  -0.053186   0.414456
      1       0.004086  -0.005984   0.128778
      2      -0.041454  -0.119014   0.731483
      3      -0.061264   0.055652  -0.040975
      4       0.061922   0.068518   0.000477
      5       0.030686  -0.027156  -0.082767
      6      -0.041324  -0.131802  -0.087777
      7      -0.104973  -0.560135  -0.319894
      8       0.102619   0.467036   0.247101
      9       0.236029   0.100046  -0.070317
     10      -0.678685  -0.234284   0.173279
     11      -0.327430  -0.125016   0.067198
     12       0.574287  -0.578183   0.231883
     13       0.041733  -0.016033   0.012154
     14      -0.099379   0.100579  -0.059553


-----------
IR SPECTRUM
-----------

 Mode   freq       eps      Int      T**2         TX        TY        TZ
       cm**-1   L/(mol*cm) km/mol    a.u.
----------------------------------------------------------------------------
  6:   1453.00   0.002324   11.74  0.000499  ( 0.008885 -0.020116 -0.003930)
  7:   1453.00   0.002324   11.74  0.000499  (-0.018005 -0.009707  0.008980)
  8:   1453.03   0.002323   11.74  0.000499  ( 0.009793  0.000404  0.020072)
  9:   1667.59   0.000000    0.00  0.000000  ( 0.000000  0.000000 -0.000001)
 10:   1667.59   0.000000    0.00  0.000000  (-0.000000  0.000000  0.000000)
 11:   3150.48   0.000000    0.00  0.000000  ( 0.000003  0.000002  0.000003)
 12:   3253.56   0.008591   43.42  0.000824  (-0.019042  0.019247  0.009538)
 13:   3253.57   0.008591   43.41  0.000824  ( 0.017298  0.021296 -0.008440)
 14:   3253.60   0.008589   43.41  0.000824  (-0.012734  0.000148 -0.025723)

* The epsilon (eps) is given for a Dirac delta lineshape.
** The dipole moment derivative (T) already includes vibrational overlap.

The first frequency considered to be a vibration is 6
The total number of vibrations considered is 9


--------------------------
THERMOCHEMISTRY AT 298.15K
--------------------------

Temperature         ...   298.15 K
Pressure            ...     1.00 atm
Total Mass          ...    16.04 AMU
Quasi RRHO          ...     True
Cut-Off Frequency   ...     1.00 cm^-1

Throughout the following assumptions are being made:
  (1) The electronic state is orbitally nondegenerate
  (2) There are no thermally accessible electronically excited states
  (3) Hindered rotations indicated by low frequency modes are not
      treated as such but are treated as vibrations and this may
      cause some error
  (4) All equations used are the standard statistical mechanics
      equations for an ideal gas
  (5) All vibrations are strictly harmonic

freq.    1453.00  E(vib)   ...       0.00 
freq.    1453.00  E(vib)   ...       0.00 
freq.    1453.03  E(vib)   ...       0.00 
freq.    1667.59  E(vib)   ...       0.00 
freq.    1667.59  E(vib)   ...       0.00 
freq.    3150.48  E(vib)   ...       0.00 
freq.    3253.56  E(vib)   ...       0.00 
freq.    3253.57  E(vib)   ...       0.00 
freq.    3253.60  E(vib)   ...       0.00 

------------
INNER ENERGY
------------

The inner energy is: U= E(el) + E(ZPE) + E(vib) + E(rot) + E(trans)
    E(el)   - is the total energy from the electronic structure calculation
              = E(kin-el) + E(nuc-el) + E(el-el) + E(nuc-nuc)
    E(ZPE)  - the the zero temperature vibrational energy from the frequency calculation
    E(vib)  - the the finite temperature correction to E(ZPE) due to population
              of excited vibrational states
    E(rot)  - is the rotational thermal energy
    E(trans)- is the translational thermal energy

Summary of contributions to the inner energy U:
Electronic energy                ...    -40.20901170 Eh
Zero point energy                ...      0.04694259 Eh      29.46 kcal/mol
Thermal vibrational correction   ...      0.00002279 Eh       0.01 kcal/mol
Thermal rotational correction    ...      0.00141627 Eh       0.89 kcal/mol
Thermal translational correction ...      0.00141627 Eh       0.89 kcal/mol
-----------------------------------------------------------------------
Total thermal energy                    -40.15921377 Eh


Summary of corrections to the electronic energy:
(perhaps to be used in another calculation)
Total thermal correction                  0.00285534 Eh       1.79 kcal/mol
Non-thermal (ZPE) correction              0.04694259 Eh      29.46 kcal/mol
-----------------------------------------------------------------------
Total correction                          0.04979793 Eh      31.25 kcal/mol


--------
ENTHALPY
--------

The enthalpy is H = U + kB*T
                kB is Boltzmann's constant
Total thermal energy              ...    -40.15921377 Eh 
Thermal Enthalpy correction       ...      0.00094421 Eh       0.59 kcal/mol
-----------------------------------------------------------------------
Total Enthalpy                    ...    -40.15826956 Eh


Note: Rotational entropy computed according to Herzberg 
Infrared and Raman Spectra, Chapter V,1, Van Nostrand Reinhold, 1945 
Point Group:  Td, Symmetry Number:  12  
Rotational constants in cm-1:     5.334799     5.334694     5.334677 

Vibrational entropy computed according to the QRRHO of S. Grimme
Chem.Eur.J. 2012 18 9955 using a reference frequency of 100.0 cm-1


-------
ENTROPY
-------

The entropy contributions are T*S = T*(S(el)+S(vib)+S(rot)+S(trans))
     S(el)   - electronic entropy
     S(vib)  - vibrational entropy
     S(rot)  - rotational entropy
     S(trans)- translational entropy
The entropies will be listed as multiplied by the temperature to get
units of energy

Electronic entropy                ...      0.00000000 Eh      0.00 kcal/mol
Vibrational entropy               ...      0.00002596 Eh      0.02 kcal/mol
Rotational entropy                ...      0.00479343 Eh      3.01 kcal/mol
Translational entropy             ...      0.01627961 Eh     10.22 kcal/mol
-----------------------------------------------------------------------
Final entropy term                ...      0.02109900 Eh     13.24 kcal/mol

In case the symmetry of your molecule has not been determined correctly
or in case you have a reason to use a different symmetry number we print 
out the resulting rotational entropy values for sn=1,12:

 non-linear molecules -----------------------------------
|  sn= 1 | S(rot)=       0.00713964 Eh      4.48 kcal/mol|
|  sn= 2 | S(rot)=       0.00648518 Eh      4.07 kcal/mol|
|  sn= 3 | S(rot)=       0.00610235 Eh      3.83 kcal/mol|
|  sn= 4 | S(rot)=       0.00583072 Eh      3.66 kcal/mol|
|  sn= 5 | S(rot)=       0.00562004 Eh      3.53 kcal/mol|
|  sn= 6 | S(rot)=       0.00544789 Eh      3.42 kcal/mol|
|  sn= 7 | S(rot)=       0.00530234 Eh      3.33 kcal/mol|
|  sn= 8 | S(rot)=       0.00517627 Eh      3.25 kcal/mol|
|  sn= 9 | S(rot)=       0.00506506 Eh      3.18 kcal/mol|
|  sn=10 | S(rot)=       0.00496558 Eh      3.12 kcal/mol|
|  sn=11 | S(rot)=       0.00487559 Eh      3.06 kcal/mol|
|  sn=12 | S(rot)=       0.00479343 Eh      3.01 kcal/mol|
 linear molecules ---------------------------------------
|  Dinfh | S(rot)=       0.00374503 Eh      2.35 kcal/mol|
|  Cinfv | S(rot)=       0.00439949 Eh      2.76 kcal/mol|
 --------------------------------------------------------


-------------------
GIBBS FREE ENERGY
-------------------

The Gibbs free energy is G = H - T*S

Total enthalpy                    ...    -40.15826956 Eh 
Total entropy correction          ...     -0.02109900 Eh    -13.24 kcal/mol
-----------------------------------------------------------------------
Final Gibbs free energy         ...    -40.17936857 Eh

For completeness - the Gibbs free energy minus the electronic energy
G-E(el)                           ...      0.02964314 Eh     18.60 kcal/mol


Maximum memory used throughout the entire PROP-calculation: 24.2 MB

--------------------------------
SUGGESTED CITATIONS FOR THIS RUN
--------------------------------

Below you find a list of papers that are relevant to this ORCA run
We neither can nor want to force you to cite these papers, but we appreciate if you do
You receive ORCA, which is the product of decades of hard work by many enthusiastic individuals, for free
The only thing we kindly ask in return is that you cite our papers,
We deeply appreciate it, if you show your appreciation for ORCA by not just citing the generic ORCA reference.

Please note that relegating all ORCA citations to the supporting information does *not* help us.
SI sections are not indexed - citations you put there will not count into any citation statistics
But we need these citations in order to attract the funding resources that allow us to do what we are doing

Therefore, if you are a happy ORCA user, please consider citing a few of the papers listed below in the main body of your paper

In addition to the list printed below, the program has created the file ch4.bibtex that contains the list in bibtex format
You can import this file easily into all common literature databanks and citation aid programs


List of essential papers. We consider these as the minimum necessary citations

  1. Neese, F.
     Software update: the ORCA program system, version 6.0
     WIRES Comput. Molec. Sci. 2025 15(1), e70019
     doi.org/10.1002/wcms.7019

List of papers to cite with high priority. The work reported in these papers was absolutely
necessary for this run to complete.
Our perspective: the developers of density functionals and basis sets usually get cited in chemistry papers
Good! But without the algorithms to do something with them, the functionals or basis sets would not do anything.
Hence, in our opinion, the algorithm design and method developments papers are equally worthy of getting cited

  1. Bykov, D.; Petrenko, T.; Izsak, R.; Kossmann, S.; Becker, U.; Valeev, E.; Neese, F.
     Efficient implementation of the analytic second derivatives of Hartree-Fock and hybrid DFT energies: a detailed analysis of different approximations
     Molec. Phys. 2015 113 , 1961-1977
     doi.org/10.1080/00268976.2015.1025114
  2. Neese, F.
     The SHARK Integral Generation and Digestion System
     J. Comp. Chem. 2022 44(3), 381
     doi.org/10.1002/jcc.26942

List of suggested additional citations. These are papers that are important in the 'surrounding' of 
of this run, or papers that preceded the highly important papers. If you like your results we are grateful for a citation.

  1. Neese, F.
     The ORCA program system
     WIRES Comput. Molec. Sci. 2012 2(1), 73-78
     doi.org/10.1002/wcms.81
  2. Neese, F.
     Software update: the ORCA program system, version 4.0
     WIRES Comput. Molec. Sci. 2018 8(1), 1-6
     doi.org/10.1002/wcms.1327
  3. Neese, F.; Wennmohs, F.; Becker, U.; Riplinger, C.
     The ORCA quantum chemistry program package
     J. Chem. Phys. 2020 152(22), 224108
     doi.org/10.1063/5.0004608
  4. Neese, F.
     Software update: The ORCA program system—Version 5.0
     WIRES Comput. Molec. Sci. 2022 12(1), e1606
     doi.org/10.1002/wcms.1606

List of optional additional citations

  1. Neese, F.
     Approximate second-order SCF convergence for spin unrestricted wavefunctions
     Chem. Phys. Lett. 2000 325(1-3), 93-98
     doi.org/10.1016/s0009-2614(00)00662-x

Timings for individual modules:

Sum of individual times          ...        3.447 sec (=   0.057 min)
Startup calculation              ...        0.338 sec (=   0.006 min)   9.8 %
SCF iterations                   ...        0.892 sec (=   0.015 min)  25.9 %
Property integrals               ...        0.318 sec (=   0.005 min)   9.2 %
SCF Response                     ...        0.736 sec (=   0.012 min)  21.3 %
Property calculations            ...        0.882 sec (=   0.015 min)  25.6 %
SCF Gradient evaluation          ...        0.276 sec (=   0.005 min)   8.0 %
Geometry relaxation              ...        0.006 sec (=   0.000 min)   0.2 %
                             ****ORCA TERMINATED NORMALLY****
TOTAL RUN TIME: 0 days 0 hours 0 minutes 3 seconds 557 msec
