
                                 *****************
                                 * O   R   C   A *
                                 *****************

                                            #,                                       
                                            ###                                      
                                            ####                                     
                                            #####                                    
                                            ######                                   
                                           ########,                                 
                                     ,,################,,,,,                         
                               ,,#################################,,                 
                          ,,##########################################,,             
                       ,#########################################, ''#####,          
                    ,#############################################,,   '####,        
                  ,##################################################,,,,####,       
                ,###########''''           ''''###############################       
              ,#####''   ,,,,##########,,,,          '''####'''          '####       
            ,##' ,,,,###########################,,,                        '##       
           ' ,,###''''                  '''############,,,                           
         ,,##''                                '''############,,,,        ,,,,,,###''
      ,#''                                            '''#######################'''  
     '                                                          ''''####''''         
             ,#######,   #######,   ,#######,      ##                                
            ,#'     '#,  ##    ##  ,#'     '#,    #''#        ,####,    ,#,          
            ##       ##  ##   ,#'  ##            #'  '#       #'       ,# #          
            ##       ##  #######   ##           ,######,      #####,      #          
            '#,     ,#'  ##    ##  '#,     ,#' ,#      #,     #,   #      #          
             '#######'   ##     ##  '#######'  #'      '#     '####' #    #          



                #########################################################
                #                        -***-                          #
                #          Department of theory and spectroscopy        #
                #                                                       #
                #                      Frank Neese                      #
                #                                                       #
                #     Directorship, Architecture, Infrastructure        #
                #                    SHARK, DRIVERS                     #
                #        Core code/Algorithms in most modules           #
                #                                                       #
                #        Max Planck Institute fuer Kohlenforschung      #
                #                Kaiser Wilhelm Platz 1                 #
                #                 D-45470 Muelheim/Ruhr                 #
                #                      Germany                          #
                #                                                       #
                #                  All rights reserved                  #
                #                        -***-                          #
                #########################################################


                         Program Version 6.1.0  -  RELEASE   -
                                (GIT: $679e74b$)
                          ($2025-06-10 18:02:51 +0200$)


 With contributions from (in alphabetic order):
[Max-Planck-Institut fuer Kohlenforschung]                               
  Daniel Aravena         : Magnetic Suceptibility                        
  Michael Atanasov       : Ab Initio Ligand Field Theory (pilot matlab implementation)
  Alexander A. Auer      : GIAO ZORA, VPT2 properties, NMR spectrum      
  Ute Becker             : All parallelization in ORCA, NUMFREQ, NUMCALC 
  Giovanni Bistoni       : ED, misc. LED, open-shell LED, HFLD           
  Dmytro Bykov           : pre 5.0 version of the SCF Hessian            
  Marcos Casanova-Páez   : Triplet and SCS-CIS(D). UHF-(DLPNO)-IP/EA/STEOM-CCSD. UHF-CVS-IP/STEOM-CCSD   
  Vijay G. Chilkuri      : MRCI spin determinant printing, contributions to CSF-ICE 
  Pauline Colinet        : FMM embedding                                 
  Dipayan Datta          : RHF DLPNO-CCSD density                        
  Achintya Kumar Dutta   : EOM-CC, STEOM-CC                              
  Nicolas Foglia         : Exact transition moments, OPA infrastructure, MCD improvements    
  Dmitry Ganyushin       : Spin-Orbit,Spin-Spin,Magnetic field MRCI      
  Miquel Garcia-Rates    : C-PCM and meta-GGA Hessian, CCSD/C-PCM, Gaussian charge scheme 
  Tiago L. C. Gouveia    : GS-ROHF, GS-ROCIS                             
  Yang Guo               : DLPNO-NEVPT2, F12-NEVPT2, CIM, IAO-localization        
  Andreas Hansen         : Spin unrestricted coupled pair/coupled cluster methods 
  Ingolf Harden          : AUTO-CI MPn and infrastructure                
  Benjamin Helmich-Paris : MC-RPA, TRAH-(SCF,CASSCF), AVAS, COSX integrals, SCF dyn. polar., MC-PDFT, srDFT 
  Lee Huntington         : MR-EOM, pCC                                   
  Robert Izsak           : Overlap fitted RIJCOSX, COSX-SCS-MP3, EOM     
  Riya Kayal             : Wick's Theorem for AUTO-CI, AUTO-CI UHF-CCSDT 
  Emily Kempfer          : AUTO-CI RHF CISDT and CCSDT, approximate NEVPT4
  Christian Kollmar      : KDIIS, OOCD, Brueckner-CCSD(T), CCSD density, CASPT2, CASPT2-K, improved NEVPT2 
  Axel Koslowski         : Symmetry handling                             
  Simone Kossmann        : meta-GGA functionals, TD-DFT gradient, OOMP2, (MP2 Hessian; deprecated post 5.0) 
  Lucas Lang             : DCDCAS, Hyperfine gauge corrections, ICE-SOC+SSC
  Marvin Lechner         : AUTO-CI (C++ implementation), FIC-MRCC        
  Spencer Leger          : CASSCF response                               
  Dagmar Lenk            : GEPOL surface, SMD, ORCA-2-JSON               
  Dimitrios Liakos       : Extrapolation schemes; Compound Job, Property file
  Dimitrios Manganas     : Further ROCIS development; embedding schemes. LFT, Crystal Embedding 
  Dimitrios Pantazis     : SARC Basis sets                               
  Anastasios Papadopoulos: AUTO-CI, single reference methods and gradients 
  Taras Petrenko         : pre 6.0 DFT Hessian and TD-DFT gradient,  ECA, NRVS 
  Petra Pikulova         : Analytic Raman intensities                    
  Peter Pinski           : DLPNO-MP2, DLPNO-MP2 Gradient                 
  Shashank Vittal Rao    : ES-AILFT, MagRelax                            
  Christoph Reimann      : Effective Core Potentials                     
  Marius Retegan         : Local ZFS, SOC                                
  Christoph Riplinger    : Optimizer, TS searches, QM/MM, DLPNO-CCSD(T), (RO)-DLPNO pert. Triples 
  Michael Roemelt        : Original ROCIS implementation, recursive CI coupling coefficients
  Masaaki Saitow         : Open-shell DLPNO-CCSD energy and density      
  Barbara Sandhoefer     : DKH picture change effects                    
  Yorick L. A. Schmerwitz: GMF and freeze-and-release deltaSCF, NEB S-IDPP initial path                    
  Kantharuban Sivalingam : CASSCF convergence/infrastructure, NEVPT2, NEVPT3, NEVPT4(SD), FIC-MRCI and CEPA variants
  Bernardo de Souza      : ESD, SOC TD-DFT                               
  Georgi L. Stoychev     : AutoAux, RI-MP2 NMR, DLPNO-MP2 response, X2C  
  Van Anh Tran           : RI-MP2 g-tensors                              
  Willem Van den Heuvel  : Paramagnetic NMR                              
  Zikuan Wang            : NOTCH, Electric field optimization            
  Frank Wennmohs         : Technical directorship and infrastructure     
  Hang Xu                : AUTO-CI-Response properties                   
                                                                         
[FACCTs GmbH]                                                            
  Markus Bursch, Nicolas Foglia, Miquel Garcia-Rates, Ingolf Harden, Hagen Neugebauer, Anastasios Papadopoulos, 
  Christoph Riplinger, Bernardo de Souza, Georgi L. Stoychev                                                    
                                                                 
  APM, various basis sets, CI-OPT, improved COSX, DLPNO-Multilevel,           
  DOCKER, DRACO, updates on ESD, Fragmentator, GOAT, IRC, LR-CPCM, L-BFGS, MBIS, meta-GGA TD-DFT gradient, ML-optimized integration grids, 
  MM, NACMEs, nearIR, NEB, NEB-TS, NL-DFT gradient (VV10), 2- and 3-layer-ONIOM, interface openCOSMO-RS, QMMM,   
  Crystal-QMMM, RESP, rigid body optimization, SF, symmetry and pop. for TD-DFT, various functionals, SOLVATOR                                   
                                                                         
[Other institutions]                                                     
  V. Asgeirsson          : NEB                                           
  Christoph Bannwarth    : sTDA-DFT, sTD-DFT, PBEh-3c, B97-3c, D3        
  Giovanni Bistoni       : ETS/NOCV, ADLD/ADEX, COVALED                  
  Martin Brehm           : Molecular dynamics                            
  Ronald Cardenas        : ETS/NOCV                                      
  Martina Colucci        : COVALED                                       
  Sebastian Ehlert       : rSCAN, r2SCAN, r2SCAN-3c, D4, dhf basis sets  
  Marvin Friede          : D4 for Fr, Ra, Ac-Lr                          
  Lars Goerigk           : TD-DFT with DH, B97 family of functionals     
  Stefan Grimme          : VdW corrections, initial TS optimization, DFT functionals, gCP, sTDA/sTD-DF 
  Waldemar Hujo          : DFT-NL                                        
  H. Jonsson             : NEB                                           
  Holger Kruse           : gCP                                           
  Marcel Mueller         : wB97X-3c, vDZP basis set                      
  Hagen Neugebauer       : wr2SCAN, Native XTB                           
  Gianluca Regni         : ADLD/ADEX                                     
  Tobias Risthaus        : pre 6.0 range-separated hybrid DFT and stability analysis
  Lukas Wittmann         : regularized MP2, r2SCAN double-hybrids, wr2SCAN        
                                                                         
We gratefully acknowledge several colleagues who have allowed us to      
interface, adapt or use parts of their codes:                            
  Ed Valeev, F. Pavosevic, A. Kumar             : LibInt (2-el integral package), F12 methods 
  Garnet Chan, S. Sharma, J. Yang, R. Olivares  : DMRG                   
  Ulf Ekstrom                                   : XCFun DFT Library      
  Mihaly Kallay                                 : mrcc  (arbitrary order and MRCC methods)
  Frank Weinhold                                : gennbo (NPA and NBO analysis)           
  Simon Mueller                                 : openCOSMO-RS                            
  Christopher J. Cramer and Donald G. Truhlar   : smd solvation model                     
  S Lehtola, MJT Oliveira, MAL Marques          : LibXC Library                           
  Liviu Ungur et al                             : ANISO software                          


 Your calculation uses the libint2 library for the computation of 2-el integrals
 For citations please refer to: http://libint.valeyev.net

 Your ORCA version has been built with support for libXC version: 7.0.0
 For citations please refer to: https://libxc.gitlab.io

 This ORCA versions uses:
   CBLAS   interface :  Fast vector & matrix operations
   LAPACKE interface :  Fast linear algebra routines
   SCALAPACK package :  Parallel linear algebra routines
   Shared memory     :  Shared parallel matrices
   BLAS/LAPACK       :  OpenBLAS 0.3.29  USE64BITINT DYNAMIC_ARCH NO_AFFINITY Zen SINGLE_THREADED
        Core in use  :  Zen
   Copyright (c) 2011-2014, The OpenBLAS Project


  ***********************************
  * Starting time: Mon Oct 20 09:37:47 2025
  * Host name:     ae2-c724
  * Process ID:    2109196
  * Working dir.:  /home/jsc/Lehre/TCGPR/practical_course_bachelor/n2h4/hf_6_311_g_dp
  ***********************************

================================================================================

----- Orbital basis set information -----
Your calculation utilizes the basis: 6-311G(d,p)
   H, Li - Ne  : R. Krishnan, J. S. Binkley, R. Seeger and J. A. Pople, J. Chem. Phys. 72, 650 (1980).
   Na - Ar     : A. D. McLean and G. S. Chandler J. Chem. Phys. 72, 5639, (1980).
   K  - Ca     : J.-P. Blaudeau, M. P. McGrath, L. A. Curtiss and L. Radom, J. Chem. Phys. 107, 5016 (1997).
   Ga - Kr     : L. A. Curtiss, M. P. McGrath, J.-P. Blandeau, N. E. Davis, R. C. Binning and L. Radom, J. Chem. Phys. 103, 6104 (1995).
   Pol./Diff.
   H, Li - Cl  : T. Clark, J. Chandrasekhar and P. v. R. Schleyer, J. Comp. Chem. 4, 294 (1983).
   H - Ne      : M. J. Frisch, J. A. Pople and J. S. Binkley, J. Chem. Phys. 80, 3265 (1984).

================================================================================
                                        WARNINGS
                       Please study these warnings very carefully!
================================================================================


WARNING: Analytical and numerical frequencies both set to true
  ===> : Disabling Anfreq

WARNING: The environment variable RSH_COMMAND is not set!
  ===> : All Displacements for the Numerical Hessian or Gradient calculation
         will be started on localhost

WARNING: Geometry Optimization
  ===> : Switching off AutoStart
         For restart on a previous wavefunction, please use MOREAD

================================================================================
                                       INPUT FILE
================================================================================
NAME = n2h4.inp
|  1> ! HF 6-311G(d,p) OPT FREQ NUMFREQ
|  2> %pal nprocs 8 END
|  3> * xyz 0 1
|  4> N    0.000000    0.000000    0.000000
|  5> N    1.452000    0.000000    0.000000
|  6> H   -0.349000    0.479000    0.829000
|  7> H   -0.349000    0.479000   -0.829000
|  8> H    1.103000   -0.829000    0.479000
|  9> H    1.103000    0.829000    0.479000
| 10> *
| 11> 
| 12> 
| 13>                          ****END OF INPUT****
================================================================================

                       *****************************
                       * Geometry Optimization Run *
                       *****************************

Geometry optimization settings:
Update method            Update   .... BFGS
Choice of coordinates    CoordSys .... (2022) Redundant Internals
Initial Hessian          InHess   .... Almloef's Model
Max. no of cycles        MaxIter  .... 50

Convergence Tolerances:
Energy Change            TolE     ....  5.0000e-06 Eh
Max. Gradient            TolMAXG  ....  3.0000e-04 Eh/bohr
RMS Gradient             TolRMSG  ....  1.0000e-04 Eh/bohr
Max. Displacement        TolMAXD  ....  4.0000e-03 bohr
RMS Displacement         TolRMSD  ....  2.0000e-03 bohr
Strict Convergence                .... False

------------------------------------------------------------------------------
                        ORCA OPTIMIZATION COORDINATE SETUP
------------------------------------------------------------------------------

The optimization will be done in redundant internal coordinates (2022)
Making redundant internal coordinates   ...  (2022 redundants) done
Evaluating the initial hessian          ...  (Almloef) done
Evaluating the coordinates              ...  done
Calculating the B-matrix                .... done
Calculating the G-matrix                .... done
The number of degrees of freedom        ....   15

    -----------------------------------------------------------------
                    Redundant Internal Coordinates


    -----------------------------------------------------------------
         Definition                    Initial Value    Approx d2E/dq
    -----------------------------------------------------------------
      1. B(N   1,N   0)                  1.4520         0.399113   
      2. B(H   2,N   0)                  1.0191         0.418543   
      3. B(H   3,N   0)                  1.0191         0.418543   
      4. B(H   4,N   1)                  1.0191         0.418543   
      5. B(H   5,N   1)                  1.0191         0.418543   
      6. A(H   2,N   0,H   3)          108.8776         0.300053   
      7. A(N   1,N   0,H   2)          110.0276         0.329215   
      8. A(N   1,N   0,H   3)          110.0276         0.329215   
      9. A(H   4,N   1,H   5)          108.8776         0.300053   
     10. A(N   0,N   1,H   5)           69.9724         0.329215   
     11. A(N   0,N   1,H   4)           69.9724         0.329215   
     12. D(H   4,N   1,N   0,H   3)   -150.0390         0.014534   
     13. D(H   5,N   1,N   0,H   2)    -29.9610         0.014534   
     14. D(H   5,N   1,N   0,H   3)     90.0000         0.014534   
     15. D(H   4,N   1,N   0,H   2)     90.0000         0.014534   
    -----------------------------------------------------------------

Number of atoms                         .... 6
Number of degrees of freedom            .... 15


         *************************************************************
         *                GEOMETRY OPTIMIZATION CYCLE   1            *
         *************************************************************
---------------------------------
CARTESIAN COORDINATES (ANGSTROEM)
---------------------------------
  N      0.000000    0.000000    0.000000
  N      1.452000    0.000000    0.000000
  H     -0.349000    0.479000    0.829000
  H     -0.349000    0.479000   -0.829000
  H      1.103000   -0.829000    0.479000
  H      1.103000    0.829000    0.479000

----------------------------
CARTESIAN COORDINATES (A.U.)
----------------------------
  NO LB      ZA    FRAG     MASS         X           Y           Z
   0 N     7.0000    0    14.007    0.000000    0.000000    0.000000
   1 N     7.0000    0    14.007    2.743882    0.000000    0.000000
   2 H     1.0000    0     1.008   -0.659514    0.905179    1.566583
   3 H     1.0000    0     1.008   -0.659514    0.905179   -1.566583
   4 H     1.0000    0     1.008    2.084368   -1.566583    0.905179
   5 H     1.0000    0     1.008    2.084368    1.566583    0.905179

--------------------------------
INTERNAL COORDINATES (ANGSTROEM)
--------------------------------
 N      0   0   0     0.000000000000     0.00000000     0.00000000
 N      1   0   0     1.452000000000     0.00000000     0.00000000
 H      1   2   0     1.019059860852   110.02758522     0.00000000
 H      1   2   3     1.019059860852   110.02758522   119.96096221
 H      2   1   3     1.019059860852    69.97241478    90.00000000
 H      2   1   3     1.019059860852    69.97241478   330.03903779

---------------------------
INTERNAL COORDINATES (A.U.)
---------------------------
 N      0   0   0     0.000000000000     0.00000000     0.00000000
 N      1   0   0     2.743882346454     0.00000000     0.00000000
 H      1   2   0     1.925744051082   110.02758522     0.00000000
 H      1   2   3     1.925744051082   110.02758522   119.96096221
 H      2   1   3     1.925744051082    69.97241478    90.00000000
 H      2   1   3     1.925744051082    69.97241478   330.03903779

---------------------
BASIS SET INFORMATION
---------------------
There are 2 groups of distinct atoms

 Group   1 Type N   : 11s5p1d contracted to 4s3p1d pattern {6311/311/1}
 Group   2 Type H   : 5s1p contracted to 3s1p pattern {311/1}

Atom   0N    basis set group =>   1
Atom   1N    basis set group =>   1
Atom   2H    basis set group =>   2
Atom   3H    basis set group =>   2
Atom   4H    basis set group =>   2
Atom   5H    basis set group =>   2


           ************************************************************
           *        Program running with 8 parallel MPI-processes     *
           *              working on a common directory               *
           ************************************************************
------------------------------------------------------------------------------
                             ORCA STARTUP CALCULATIONS
------------------------------------------------------------------------------
------------------------------------------------------------------------------
                   ___                                                        
                  /   \      - P O W E R E D   B Y -                         
                 /     \                                                     
                 |  |  |   _    _      __       _____    __    __             
                 |  |  |  | |  | |    /  \     |  _  \  |  |  /  |          
                  \  \/   | |  | |   /    \    | | | |  |  | /  /          
                 / \  \   | |__| |  /  /\  \   | |_| |  |  |/  /          
                |  |  |   |  __  | /  /__\  \  |    /   |      \           
                |  |  |   | |  | | |   __   |  |    \   |  |\   \          
                \     /   | |  | | |  |  |  |  | |\  \  |  | \   \       
                 \___/    |_|  |_| |__|  |__|  |_| \__\ |__|  \__/        
                                                                              
                      - O R C A' S   B I G   F R I E N D -                    
                                      &                                       
                       - I N T E G R A L  F E E D E R -                       
                                                                              
 v1 FN, 2020, v2 2021, v3 2022-2024                                           
------------------------------------------------------------------------------


----------------------
SHARK INTEGRAL PACKAGE
----------------------

Number of atoms                             ...      6
Number of basis functions                   ...     60
Number of shells                            ...     32
Maximum angular momentum                    ...      2
Integral batch strategy                     ... SHARK/LIBINT Hybrid
RI-J (if used) integral strategy            ... SPLIT-RIJ (Revised 2003 algorithm where possible)
Printlevel                                  ...      1
Contraction scheme used                     ... SEGMENTED contraction
Prescreening option                         ... SCHWARTZ
   Thresh                                   ... 2.500e-11
   Tcut                                     ... 2.500e-12
   Tpresel                                  ... 2.500e-12 
Coulomb Range Separation                    ... NOT USED
Exchange Range Separation                   ... NOT USED
Multipole approximations                    ... NOT USED
Finite Nucleus Model                        ... NOT USED
CABS basis                                  ... NOT available
Auxiliary Coulomb fitting basis             ... NOT available
Auxiliary J/K fitting basis                 ... NOT available
Auxiliary Correlation fitting basis         ... NOT available
Auxiliary 'external' fitting basis          ... NOT available

Checking pre-screening integrals            ... done (  0.0 sec) Dimension = 32
   => SHARK Basis and OBASIS are compatible. Storing Pre-screening
Shell pair information
Shell pair cut-off parameter TPreSel        ...   2.5e-12
Total number of shell pairs                 ...       528
Shell pairs after pre-screening             ...       528
Total number of primitive shell pairs       ...      1765
Primitive shell pairs kept                  ...      1565
          la=0 lb=0:    210 shell pairs
          la=1 lb=0:    200 shell pairs
          la=1 lb=1:     55 shell pairs
          la=2 lb=0:     40 shell pairs
          la=2 lb=1:     20 shell pairs
          la=2 lb=2:      3 shell pairs

Checking whether 4 symmetric matrices of dimension 60 fit in memory
:Max Core in MB      =   4096.00
 MB in use           =      1.86
 MB left             =   4094.14
 MB needed           =      0.06
 Data fit in memory  = YES
Calculating Nuclear repulsion               ... done (  0.0 sec) ENN=     42.843610216170 Eh

Diagonalization of the overlap matrix:
Smallest eigenvalue                        ... 7.052e-03
Time for diagonalization                   ...    0.000 sec
Threshold for overlap eigenvalues          ... 1.000e-07
Number of eigenvalues below threshold      ... 0
Time for construction of square roots      ...    0.000 sec
Total time needed                          ...    0.001 sec

-------------------
DFT GRID GENERATION
-------------------

General Integration Accuracy     IntAcc      ... 4.388
Radial Grid Type                 RadialGrid  ... OptM3 with GC (2021)
Angular Grid (max. ang.)         AngularGrid ... 4 (Lebedev-302)
Angular grid pruning method      GridPruning ... 4 (adaptive)
Weight generation scheme         WeightScheme... mBecke (2022)
Basis function cutoff            BFCut       ... 1.0000e-11
Integration weight cutoff        WCut        ... 1.0000e-14
Partially contracted basis set               ... off
Rotationally invariant grid construction     ... off
Angular grids for H and He will be reduced by one unit

Total number of grid points                  ...    25265
Total number of batches                      ...      397
Average number of points per batch           ...       63
Average number of grid points per atom       ...     4211
Grids setup in   0.1 sec
Initializing property integral containers    ... done (  0.0 sec)

SHARK setup successfully completed in   0.2 seconds

Maximum memory used throughout the entire STARTUP-calculation: 7.7 MB


           ************************************************************
           *        Program running with 8 parallel MPI-processes     *
           *              working on a common directory               *
           ************************************************************
-------------------------------------------------------------------------------
                                 ORCA GUESS
                   Start orbitals & Density for SCF / CASSCF
-------------------------------------------------------------------------------

------------
SCF SETTINGS
------------
Hamiltonian:
 Ab initio Hamiltonian  Method          .... Hartree-Fock(GTOs)


General Settings:
 Integral files         IntName         .... n2h4
 Hartree-Fock type      HFTyp           .... RHF
 Total Charge           Charge          ....    0
 Multiplicity           Mult            ....    1
 Number of Electrons    NEL             ....   18
 Basis Dimension        Dim             ....   60
 Nuclear Repulsion      ENuc            ....     42.8436102162 Eh

Convergence Acceleration:
 AO-DIIS                CNVDIIS         .... on
   Start iteration      DIISMaxIt       ....    12
   Startup error        DIISStart       ....  0.200000
   # of expansion vecs  DIISMaxEq       ....     5
   Bias factor          DIISBfac        ....   1.050
   Max. coefficient     DIISMaxC        ....  10.000
 MO-DIIS                CNVKDIIS        .... off
 Trust-Rad. Augm. Hess. CNVTRAH         .... auto
   Auto Start mean grad. ratio tolernc. ....  1.125000
   Auto Start start iteration           ....    50
   Auto Start num. interpolation iter.  ....    10
   Max. Number of Micro iterations      ....    24
   Max. Number of Macro iterations      .... Maxiter - #DIIS iter
   Number of Davidson start vectors     ....     2
   Converg. threshold    (grad. norm)   ....   1.000e-05
   Grad. Scal. Fac. for Micro threshold ....   0.100
   Minimum threshold for Micro iter.    ....   1.000e-02
   NR start threshold (gradient norm)   ....   1.000e-04
   Initial trust radius                 ....   0.400
   Minimum AH scaling param. (alpha)    ....   1.000
   Maximum AH scaling param. (alpha)    .... 1000.000
   Quad. conv. algorithm                .... NR
   White noise on init. David. guess    .... on
   Maximum white noise                  ....   0.010
   Pseudo random numbers                .... off
   Inactive MOs                         .... canonical
   Orbital update algorithm             .... Taylor
   Preconditioner                       .... Diag
   Full preconditioner red. dimension   ....   250
 SOSCF                 CNVSOSCF           .... on
   Start iteration     SOSCFMaxIt         ....   150
   Startup grad/error  SOSCFStart         ....  0.003300
   Hessian update      SOSCFHessUp        .... L-BFGS
   Autom. constraints  SOSCFAutoConstrain .... off
 Level Shifting         CNVShift        .... on
   Level shift para.    LevelShift      ....    0.2500
   Turn off err/grad.   ShiftErr        ....    0.0010
 Zerner damping         CNVZerner       .... off
 Static damping         CNVDamp         .... on
   Fraction old density DampFac         ....    0.7000
   Max. Damping (<1)    DampMax         ....    0.9800
   Min. Damping (>=0)   DampMin         ....    0.0000
   Turn off err/grad.   DampErr         ....    0.1000

SCF Procedure:
 Maximum # iterations   MaxIter         ....   125
 SCF integral mode      SCFMode         .... Direct
   Integral package                     .... SHARK and LIBINT hybrid scheme
 Reset frequency        DirectResetFreq ....    20
 Integral Threshold     Thresh          ....  2.500e-11 Eh
 Primitive CutOff       TCut            ....  2.500e-12 Eh

Convergence Tolerance:
 Convergence Check Mode ConvCheckMode   .... Total+1el-Energy
 Convergence forced     ConvForced      .... 0
 Energy Change          TolE            ....  1.000e-08 Eh
 1-El. energy change                    ....  1.000e-05 Eh
 Orbital Gradient       TolG            ....  1.000e-05
 Orbital Rotation angle TolX            ....  1.000e-05
 DIIS Error             TolErr          ....  5.000e-07

------------------------------
INITIAL GUESS: MODEL POTENTIAL
------------------------------
Loading Hartree-Fock densities                     ... done
Calculating cut-offs                               ... done
Initializing the effective Hamiltonian             ... done
Setting up the integral package (SHARK)            ... done
Starting the Coulomb interaction                   ... done (   0.0 sec)
Making the grid                                    ... done (   0.0 sec)
Mapping shells                                     ... done
Starting the XC term evaluation                    ... done (   0.0 sec)
Transforming the Hamiltonian                       ... done (   0.0 sec)
Diagonalizing the Hamiltonian                      ... done (   0.0 sec)
Back transforming the eigenvectors                 ... done (   0.0 sec)
Now organizing SCF variables                       ... done
                      ------------------
                      INITIAL GUESS DONE (   0.0 sec)
                      ------------------
             **** ENERGY FILE WAS UPDATED (n2h4.en.tmp) ****
Finished Guess after   0.4 sec
Maximum memory used throughout the entire GUESS-calculation: 4.1 MB


           ************************************************************
           *        Program running with 8 parallel MPI-processes     *
           *              working on a common directory               *
           ************************************************************

-------------------------------------------------------------------------------------------
                                      ORCA LEAN-SCF
                              memory conserving SCF solver
-------------------------------------------------------------------------------------------

----------------------------------------D-I-I-S--------------------------------------------
Iteration    Energy (Eh)           Delta-E    RMSDP     MaxDP     DIISErr   Damp  Time(sec)
-------------------------------------------------------------------------------------------
               ***  Starting incremental Fock matrix formation  ***
    1    -110.9234121652976341     0.00e+00  1.10e-02  5.52e-02  3.07e-01  0.700   0.0
    2    -110.9815677098990250    -5.82e-02  8.01e-03  3.54e-02  1.93e-01  0.700   0.0
                               ***Turning on AO-DIIS***
    3    -111.0148824608881171    -3.33e-02  3.45e-03  1.42e-02  1.16e-01  0.700   0.0
    4    -111.0354893817267623    -2.06e-02  2.17e-03  7.88e-03  8.01e-02  0.700   0.0
    5    -111.0492527053985157    -1.38e-02  5.24e-03  1.88e-02  5.73e-02  0.000   0.0
    6    -111.0804595971136166    -3.12e-02  7.05e-04  2.31e-03  3.84e-03  0.000   0.0
                              *** Initializing SOSCF ***
---------------------------------------S-O-S-C-F--------------------------------------
Iteration    Energy (Eh)           Delta-E    RMSDP     MaxDP     MaxGrad    Time(sec)
--------------------------------------------------------------------------------------
    7    -111.0805279591809551    -6.84e-05  4.69e-04  1.33e-03  1.38e-03     0.0
               *** Restarting incremental Fock matrix formation ***
    8    -111.0805463898127243    -1.84e-05  2.50e-04  8.27e-04  4.04e-04     0.0
    9    -111.0805501765173631    -3.79e-06  2.30e-04  8.07e-04  1.93e-04     0.0
   10    -111.0805512855232848    -1.11e-06  2.68e-05  1.29e-04  6.93e-05     0.0
   11    -111.0805513404172302    -5.49e-08  9.96e-06  3.36e-05  1.72e-05     0.0
   12    -111.0805513463261889    -5.91e-09  5.12e-06  1.78e-05  7.27e-06     0.0
                 **** Energy Check signals convergence ****

               *****************************************************
               *                     SUCCESS                       *
               *           SCF CONVERGED AFTER  12 CYCLES          *
               *****************************************************

             **** ENERGY FILE WAS UPDATED (n2h4.en.tmp) ****

----------------
TOTAL SCF ENERGY
----------------

Total Energy       :       -111.08055134732891 Eh           -3022.65547 eV

Components:
Nuclear Repulsion  :         42.84361021617008 Eh            1165.83390 eV
Electronic Energy  :       -153.92416156349898 Eh           -4188.48937 eV
One Electron Energy:       -235.47333192459331 Eh           -6407.55512 eV
Two Electron Energy:         81.54917036109433 Eh            2219.06574 eV

Virial components:
Potential Energy   :       -222.51706882490726 Eh           -6054.99727 eV
Kinetic Energy     :        111.43651747757833 Eh            3032.34180 eV
Virial Ratio       :          1.99680565995504

---------------
SCF CONVERGENCE
---------------

  Last Energy change         ...    5.9090e-09  Tolerance :   1.0000e-08
  Last MAX-Density change    ...    1.7804e-05  Tolerance :   1.0000e-07
  Last RMS-Density change    ...    5.1161e-06  Tolerance :   5.0000e-09
  Last DIIS Error            ...    1.3807e-03  Tolerance :   5.0000e-07
  Last Orbital Gradient      ...    7.2748e-06  Tolerance :   1.0000e-05
  Last Orbital Rotation      ...    1.7461e-05  Tolerance :   1.0000e-05


----------------
ORBITAL ENERGIES
----------------

  NO   OCC          E(Eh)            E(eV) 
   0   2.0000     -15.575358      -423.8270 
   1   2.0000     -15.549458      -423.1223 
   2   2.0000      -1.317207       -35.8430 
   3   2.0000      -0.984312       -26.7845 
   4   2.0000      -0.715985       -19.4829 
   5   2.0000      -0.694092       -18.8872 
   6   2.0000      -0.534165       -14.5354 
   7   2.0000      -0.424397       -11.5484 
   8   2.0000      -0.392522       -10.6811 
   9   0.0000       0.137446         3.7401 
  10   0.0000       0.200443         5.4543 
  11   0.0000       0.214926         5.8484 
  12   0.0000       0.234087         6.3698 
  13   0.0000       0.366963         9.9856 
  14   0.0000       0.471447        12.8287 
  15   0.0000       0.570915        15.5354 
  16   0.0000       0.585528        15.9330 
  17   0.0000       0.620546        16.8859 
  18   0.0000       0.798997        21.7418 
  19   0.0000       0.827661        22.5218 
*Only the first 10 virtual orbitals were printed.

                    ********************************
                    * MULLIKEN POPULATION ANALYSIS *
                    ********************************

-----------------------
MULLIKEN ATOMIC CHARGES
-----------------------
   0 N :   -0.433078
   1 N :   -0.378884
   2 H :    0.172785
   3 H :    0.215448
   4 H :    0.235801
   5 H :    0.187929
Sum of atomic charges:   -0.0000000

--------------------------------
MULLIKEN REDUCED ORBITAL CHARGES
--------------------------------
  0 N s       :     3.550940  s :     3.550940
      pz      :     1.128987  p :     3.838696
      px      :     1.003775
      py      :     1.705934
      dz2     :     0.005873  d :     0.043443
      dxz     :     0.010419
      dyz     :     0.010489
      dx2y2   :     0.008722
      dxy     :     0.007941

  1 N s       :     3.715101  s :     3.715101
      pz      :     1.566268  p :     3.619662
      px      :     0.909182
      py      :     1.144211
      dz2     :     0.004974  d :     0.044122
      dxz     :     0.005352
      dyz     :     0.009664
      dx2y2   :     0.015866
      dxy     :     0.008265

  2 H s       :     0.782412  s :     0.782412
      pz      :     0.018965  p :     0.044803
      px      :     0.010018
      py      :     0.015820

  3 H s       :     0.743192  s :     0.743192
      pz      :     0.018994  p :     0.041361
      px      :     0.007393
      py      :     0.014973

  4 H s       :     0.699402  s :     0.699402
      pz      :     0.015188  p :     0.064797
      px      :     0.026336
      py      :     0.023274

  5 H s       :     0.744214  s :     0.744214
      pz      :     0.016223  p :     0.067857
      px      :     0.028158
      py      :     0.023477



                     *******************************
                     * LOEWDIN POPULATION ANALYSIS *
                     *******************************

----------------------
LOEWDIN ATOMIC CHARGES
----------------------
   0 N :    0.032542
   1 N :   -0.078986
   2 H :    0.008733
   3 H :    0.013718
   4 H :    0.015612
   5 H :    0.008380

-------------------------------
LOEWDIN REDUCED ORBITAL CHARGES
-------------------------------
  0 N s       :     3.073886  s :     3.073886
      pz      :     1.136975  p :     3.817376
      px      :     1.049828
      py      :     1.630573
      dz2     :     0.009136  d :     0.076195
      dxz     :     0.022495
      dyz     :     0.014302
      dx2y2   :     0.013619
      dxy     :     0.016644

  1 N s       :     3.202865  s :     3.202865
      pz      :     1.557016  p :     3.813497
      px      :     1.087545
      py      :     1.168937
      dz2     :     0.007094  d :     0.062625
      dxz     :     0.006199
      dyz     :     0.012455
      dx2y2   :     0.024099
      dxy     :     0.012778

  2 H s       :     0.858804  s :     0.858804
      pz      :     0.052393  p :     0.132462
      px      :     0.027057
      py      :     0.053013

  3 H s       :     0.852973  s :     0.852973
      pz      :     0.054402  p :     0.133308
      px      :     0.028056
      py      :     0.050851

  4 H s       :     0.791880  s :     0.791880
      pz      :     0.046598  p :     0.192507
      px      :     0.089334
      py      :     0.056575

  5 H s       :     0.797799  s :     0.797799
      pz      :     0.047442  p :     0.193820
      px      :     0.091461
      py      :     0.054917



                      *****************************
                      * MAYER POPULATION ANALYSIS *
                      *****************************

  NA   - Mulliken gross atomic population
  ZA   - Total nuclear charge
  QA   - Mulliken gross atomic charge
  VA   - Mayer's total valence
  BVA  - Mayer's bonded valence
  FA   - Mayer's free valence

  ATOM       NA         ZA         QA         VA         BVA        FA
  0 N      7.4331     7.0000    -0.4331     2.7283     2.7283    -0.0000
  1 N      7.3789     7.0000    -0.3789     2.6447     2.6447     0.0000
  2 H      0.8272     1.0000     0.1728     0.9645     0.9645    -0.0000
  3 H      0.7846     1.0000     0.2154     0.9543     0.9543    -0.0000
  4 H      0.7642     1.0000     0.2358     0.9965     0.9965    -0.0000
  5 H      0.8121     1.0000     0.1879     1.0180     1.0180    -0.0000

  Mayer bond orders larger than 0.100000
B(  0-N ,  1-N ) :   0.7353 B(  0-N ,  2-H ) :   0.9606 B(  0-N ,  3-H ) :   0.9368 
B(  1-N ,  4-H ) :   0.9357 B(  1-N ,  5-H ) :   0.9549 

-------
TIMINGS
-------

Total SCF time: 0 days 0 hours 0 min 0 sec 

Total time                  ....       0.713 sec
Sum of individual times     ....       0.676 sec  ( 94.8%)

SCF preparation             ....       0.384 sec  ( 53.9%)
Fock matrix formation       ....       0.195 sec  ( 27.4%)
  Startup                   ....       0.002 sec  (  1.2% of F)
  Coulomb+Exchange Fock     ....       0.198 sec  (101.2% of F)
Diagonalization             ....       0.000 sec  (  0.0%)
Density matrix formation    ....       0.015 sec  (  2.1%)
Total Energy calculation    ....       0.009 sec  (  1.3%)
Population analysis         ....       0.006 sec  (  0.8%)
Orbital Transformation      ....       0.006 sec  (  0.8%)
Orbital Orthonormalization  ....       0.000 sec  (  0.0%)
DIIS solution               ....       0.038 sec  (  5.4%)
SOSCF solution              ....       0.022 sec  (  3.1%)
Finished LeanSCF after   0.7 sec

Maximum memory used throughout the entire LEANSCF-calculation: 7.6 MB

-------------------------   --------------------
FINAL SINGLE POINT ENERGY      -111.080551347329
-------------------------   --------------------



           ************************************************************
           *        Program running with 8 parallel MPI-processes     *
           *              working on a common directory               *
           ************************************************************
------------------------------------------------------------------------------
                         ORCA SCF GRADIENT CALCULATION
------------------------------------------------------------------------------

Nuc. rep. gradient        (SHARK) ... done (  0.0 sec)
HCore & Overlap gradient  (SHARK) ... done (  0.0 sec)
Two-electron gradient     (SHARK) ... done (  0.1 sec)

------------------
CARTESIAN GRADIENT
------------------

   1   N   :    0.138104085   -0.012833942    0.072723103
   2   N   :    0.043078060   -0.005723171   -0.018950071
   3   H   :    0.005295804    0.008081199    0.015972958
   4   H   :    0.003038953    0.007193508   -0.014540443
   5   H   :   -0.086306630    0.006922983   -0.028580999
   6   H   :   -0.103210273   -0.003640576   -0.026624549

Difference to translation invariance:
           :    0.0000000000   -0.0000000000   -0.0000000000

Difference to rotation invariance:
           :   -0.0000001835   -0.0000009411    0.0000006586

Norm of the Cartesian gradient     ...    0.2169854522
RMS gradient                       ...    0.0511439616
MAX gradient                       ...    0.1381040849

-------
TIMINGS
-------

Total SCF gradient time     ....        0.085 sec

Densities                   ....       0.000 sec  (  0.2%)
One electron gradient       ....       0.009 sec  ( 10.9%)
Two electron gradient       ....       0.075 sec  ( 88.7%)

Maximum memory used throughout the entire SCFGRAD-calculation: 13.5 MB
------------------------------------------------------------------------------
                         ORCA GEOMETRY RELAXATION STEP
------------------------------------------------------------------------------

Reading the OPT-File                    .... done
Getting information on internals        .... done
Copying old internal coords+grads       .... done
Making the new internal coordinates     .... (2022 redundants) done
Validating the new internal coordinates .... (2022 redundants) done
Calculating the B-matrix                .... done
Calculating the G,G- and P matrices     .... done
Transforming gradient to internals      .... done
Projecting the internal gradient        .... done
Number of atoms                         ....   6
Number of internal coordinates          ....  15
Current Energy                          ....  -111.080551347 Eh
Current gradient norm                   ....     0.216985452 Eh/bohr
Maximum allowed component of the step   ....  0.300
Current trust radius                    ....  0.300
Evaluating the initial hessian          ....  (Almloef) done
Projecting the Hessian                  .... done
Forming the augmented Hessian           .... done
Diagonalizing the augmented Hessian     .... done
Last element of RFO vector              ....  0.842319095
Lowest eigenvalues of augmented Hessian:
 -0.175543753  0.014533524  0.103089197  0.128686922  0.319505664
Length of the computed step             ....  0.639875281
Warning: the length of the step is outside the trust region - taking restricted step instead
The input lambda is                     ....     0.013534
   iter:   5  x=   -0.575753  g=    0.460181 f(x)=     0.068163
   iter:  10  x=   -0.654050  g=    0.193703 f(x)=     0.000000
The output lambda is                    ....    -0.654050 (10 iterations)
The final length of the internal step   ....  0.300000000
Converting the step to Cartesian space:
 Initial RMS(Int)=    0.0774596669
Transforming coordinates:
 Iter   0:  RMS(Cart)=    0.1205138680 RMS(Int)=    0.0753706352
 Iter   5:  RMS(Cart)=    0.0000069370 RMS(Int)=    0.0000058281
done
Storing new coordinates                 .... done

                                .--------------------.
          ----------------------|Geometry convergence|-------------------------
          Item                value                   Tolerance       Converged
          ---------------------------------------------------------------------
          RMS gradient        0.0734639229            0.0001000000      NO
          MAX gradient        0.1609736719            0.0003000000      NO
          RMS step            0.0774596669            0.0020000000      NO
          MAX step            0.1717486733            0.0040000000      NO
          -------------------------------------------------------------------------
          ........................................................
          Max(Bonds)      0.0736      Max(Angles)    9.84
          Max(Dihed)        3.82      Max(Improp)    0.00
          ---------------------------------------------------------------------

The optimization has not yet converged - more geometry cycles are needed


    ---------------------------------------------------------------------------
                         Redundant Internal Coordinates
                            (Angstroem and degrees)

        Definition                    Value    dE/dq     Step     New-Value
    ----------------------------------------------------------------------------
     1. B(N   1,N   0)                1.4520 -0.146439  0.0736    1.5256   
     2. B(H   2,N   0)                1.0191  0.014979 -0.0074    1.0117   
     3. B(H   3,N   0)                1.0191  0.014169 -0.0070    1.0121   
     4. B(H   4,N   1)                1.0191  0.010492 -0.0052    1.0139   
     5. B(H   5,N   1)                1.0191  0.019870 -0.0098    1.0093   
     6. A(H   2,N   0,H   3)          108.88  0.009495   -0.51    108.37   
     7. A(N   1,N   0,H   2)          110.03 -0.016528    0.99    111.02   
     8. A(N   1,N   0,H   3)          110.03 -0.011334    0.69    110.72   
     9. A(H   4,N   1,H   5)          108.88 -0.071835    3.38    112.26   
    10. A(N   0,N   1,H   5)           69.97 -0.160974    9.84     79.81   
    11. A(N   0,N   1,H   4)           69.97 -0.132910    8.21     78.18   
    12. D(H   4,N   1,N   0,H   3)   -150.04  0.045369   -3.39   -153.42   
    13. D(H   5,N   1,N   0,H   2)    -29.96 -0.045322    3.38    -26.58   
    14. D(H   5,N   1,N   0,H   3)     90.00 -0.051151    3.81     93.81   
    15. D(H   4,N   1,N   0,H   2)     90.00  0.051198   -3.82     86.18   
    ----------------------------------------------------------------------------

Geometry step timings:
Preparation and reading OPT file:      0.000 s ( 3.221 %)
Internal coordinates            :      0.000 s ( 4.448 %)
B/P matrices and projection     :      0.000 s (17.025 %)
Hessian update/contruction      :      0.000 s (14.417 %)
Making the step                 :      0.000 s (19.862 %)
Converting the step to Cartesian:      0.000 s ( 5.905 %)
Storing new data                :      0.000 s ( 3.834 %)
Checking convergence            :      0.000 s ( 6.518 %)
Final printing                  :      0.000 s (24.770 %)
Total time                      :      0.001 s

Time for energy+gradient        :      2.827 s
Time for complete geometry iter :      3.355 s

         *************************************************************
         *                GEOMETRY OPTIMIZATION CYCLE   2            *
         *************************************************************
---------------------------------
CARTESIAN COORDINATES (ANGSTROEM)
---------------------------------
  N     -0.088780    0.012889   -0.029095
  N      1.436520   -0.010022   -0.010997
  H     -0.454321    0.482216    0.789189
  H     -0.429822    0.494090   -0.851543
  H      1.221139   -0.843729    0.524263
  H      1.275264    0.822557    0.536184

----------------------------
CARTESIAN COORDINATES (A.U.)
----------------------------
  NO LB      ZA    FRAG     MASS         X           Y           Z
   0 N     7.0000    0    14.007   -0.167771    0.024356   -0.054982
   1 N     7.0000    0    14.007    2.714630   -0.018939   -0.020781
   2 H     1.0000    0     1.008   -0.858543    0.911256    1.491350
   3 H     1.0000    0     1.008   -0.812245    0.933694   -1.609183
   4 H     1.0000    0     1.008    2.307619   -1.594418    0.990713
   5 H     1.0000    0     1.008    2.409899    1.554408    1.013241

--------------------------------
INTERNAL COORDINATES (ANGSTROEM)
--------------------------------
 N      0   0   0     0.000000000000     0.00000000     0.00000000
 N      1   0   0     1.525580360781     0.00000000     0.00000000
 H      1   2   0     1.011669877665   111.01606920     0.00000000
 H      1   2   3     1.012069388241   110.71337331   120.39812235
 H      2   1   3     1.013883687927    78.82648524    86.69456594
 H      2   1   3     1.009256570060    80.46176976   332.90329101

---------------------------
INTERNAL COORDINATES (A.U.)
---------------------------
 N      0   0   0     0.000000000000     0.00000000     0.00000000
 N      1   0   0     2.882929077165     0.00000000     0.00000000
 H      1   2   0     1.911779006724   111.01606920     0.00000000
 H      1   2   3     1.912533972300   110.71337331   120.39812235
 H      2   1   3     1.915962501831    78.82648524    86.69456594
 H      2   1   3     1.907218516274    80.46176976   332.90329101



           ************************************************************
           *        Program running with 8 parallel MPI-processes     *
           *              working on a common directory               *
           ************************************************************
------------------------------------------------------------------------------
                   ___                                                        
                  /   \      - P O W E R E D   B Y -                         
                 /     \                                                     
                 |  |  |   _    _      __       _____    __    __             
                 |  |  |  | |  | |    /  \     |  _  \  |  |  /  |          
                  \  \/   | |  | |   /    \    | | | |  |  | /  /          
                 / \  \   | |__| |  /  /\  \   | |_| |  |  |/  /          
                |  |  |   |  __  | /  /__\  \  |    /   |      \           
                |  |  |   | |  | | |   __   |  |    \   |  |\   \          
                \     /   | |  | | |  |  |  |  | |\  \  |  | \   \       
                 \___/    |_|  |_| |__|  |__|  |_| \__\ |__|  \__/        
                                                                              
                      - O R C A' S   B I G   F R I E N D -                    
                                      &                                       
                       - I N T E G R A L  F E E D E R -                       
                                                                              
 v1 FN, 2020, v2 2021, v3 2022-2024                                           
------------------------------------------------------------------------------


----------------------
SHARK INTEGRAL PACKAGE
----------------------

Number of atoms                             ...      6
Number of basis functions                   ...     60
Number of shells                            ...     32
Maximum angular momentum                    ...      2
Integral batch strategy                     ... SHARK/LIBINT Hybrid
RI-J (if used) integral strategy            ... SPLIT-RIJ (Revised 2003 algorithm where possible)
Printlevel                                  ...      1
Contraction scheme used                     ... SEGMENTED contraction
Prescreening option                         ... SCHWARTZ
   Thresh                                   ... 2.500e-11
   Tcut                                     ... 2.500e-12
   Tpresel                                  ... 2.500e-12 
Coulomb Range Separation                    ... NOT USED
Exchange Range Separation                   ... NOT USED
Multipole approximations                    ... NOT USED
Finite Nucleus Model                        ... NOT USED
CABS basis                                  ... NOT available
Auxiliary Coulomb fitting basis             ... NOT available
Auxiliary J/K fitting basis                 ... NOT available
Auxiliary Correlation fitting basis         ... NOT available
Auxiliary 'external' fitting basis          ... NOT available

Checking pre-screening integrals            ... done (  0.0 sec) Dimension = 32
   => SHARK Basis and OBASIS are compatible. Storing Pre-screening
Shell pair information
Shell pair cut-off parameter TPreSel        ...   2.5e-12
Total number of shell pairs                 ...       528
Shell pairs after pre-screening             ...       528
Total number of primitive shell pairs       ...      1765
Primitive shell pairs kept                  ...      1558
          la=0 lb=0:    210 shell pairs
          la=1 lb=0:    200 shell pairs
          la=1 lb=1:     55 shell pairs
          la=2 lb=0:     40 shell pairs
          la=2 lb=1:     20 shell pairs
          la=2 lb=2:      3 shell pairs

Checking whether 4 symmetric matrices of dimension 60 fit in memory
:Max Core in MB      =   4096.00
 MB in use           =      1.88
 MB left             =   4094.12
 MB needed           =      0.06
 Data fit in memory  = YES
Calculating Nuclear repulsion               ... done (  0.0 sec) ENN=     41.214575417390 Eh

Diagonalization of the overlap matrix:
Smallest eigenvalue                        ... 7.112e-03
Time for diagonalization                   ...    0.001 sec
Threshold for overlap eigenvalues          ... 1.000e-07
Number of eigenvalues below threshold      ... 0
Time for construction of square roots      ...    0.000 sec
Total time needed                          ...    0.002 sec

-------------------
DFT GRID GENERATION
-------------------

General Integration Accuracy     IntAcc      ... 4.388
Radial Grid Type                 RadialGrid  ... OptM3 with GC (2021)
Angular Grid (max. ang.)         AngularGrid ... 4 (Lebedev-302)
Angular grid pruning method      GridPruning ... 4 (adaptive)
Weight generation scheme         WeightScheme... mBecke (2022)
Basis function cutoff            BFCut       ... 1.0000e-11
Integration weight cutoff        WCut        ... 1.0000e-14
Partially contracted basis set               ... off
Rotationally invariant grid construction     ... off
Angular grids for H and He will be reduced by one unit

Total number of grid points                  ...    25290
Total number of batches                      ...      399
Average number of points per batch           ...       63
Average number of grid points per atom       ...     4215
Grids setup in   0.1 sec
Initializing property integral containers    ... done (  0.0 sec)

SHARK setup successfully completed in   0.2 seconds

Maximum memory used throughout the entire STARTUP-calculation: 7.7 MB


           ************************************************************
           *        Program running with 8 parallel MPI-processes     *
           *              working on a common directory               *
           ************************************************************
Occupation numbers will be reassigned to an Aufbau configuration
             **** ENERGY FILE WAS UPDATED (n2h4.en.tmp) ****
Finished Guess after   0.4 sec
Maximum memory used throughout the entire GUESS-calculation: 4.1 MB


           ************************************************************
           *        Program running with 8 parallel MPI-processes     *
           *              working on a common directory               *
           ************************************************************
----------------------------------------D-I-I-S--------------------------------------------
Iteration    Energy (Eh)           Delta-E    RMSDP     MaxDP     DIISErr   Damp  Time(sec)
-------------------------------------------------------------------------------------------
               ***  Starting incremental Fock matrix formation  ***
    1    -111.1363809719669291     0.00e+00  2.44e-03  1.67e-02  5.95e-02  0.700   0.0
    2    -111.1392362775675906    -2.86e-03  2.17e-03  1.43e-02  4.68e-02  0.700   0.0
                               ***Turning on AO-DIIS***
    3    -111.1414677557418997    -2.23e-03  2.02e-03  1.22e-02  3.60e-02  0.700   0.0
    4    -111.1431620891831358    -1.69e-03  5.53e-03  3.36e-02  2.63e-02  0.000   0.0
                              *** Initializing SOSCF ***
---------------------------------------S-O-S-C-F--------------------------------------
Iteration    Energy (Eh)           Delta-E    RMSDP     MaxDP     MaxGrad    Time(sec)
--------------------------------------------------------------------------------------
    5    -111.1478266005898377    -4.66e-03  6.16e-04  3.48e-03  1.68e-03     0.0
               *** Restarting incremental Fock matrix formation ***
    6    -111.1478489721848462    -2.24e-05  2.73e-04  7.96e-04  5.83e-04     0.0
    7    -111.1478530889753529    -4.12e-06  2.15e-04  8.54e-04  1.88e-04     0.0
    8    -111.1478540692797310    -9.80e-07  4.07e-05  1.56e-04  6.53e-05     0.0
    9    -111.1478541647863665    -9.55e-08  1.39e-05  4.46e-05  2.12e-05     0.0
   10    -111.1478541749911813    -1.02e-08  4.20e-06  1.00e-05  7.69e-06     0.0
   11    -111.1478541761328245    -1.14e-09  9.64e-07  2.79e-06  1.17e-06     0.0
                 **** Energy Check signals convergence ****

               *****************************************************
               *                     SUCCESS                       *
               *           SCF CONVERGED AFTER  11 CYCLES          *
               *****************************************************

             **** ENERGY FILE WAS UPDATED (n2h4.en.tmp) ****

----------------
TOTAL SCF ENERGY
----------------

Total Energy       :       -111.14785417616858 Eh           -3024.48687 eV

Components:
Nuclear Repulsion  :         41.21457541739047 Eh            1121.50561 eV
Electronic Energy  :       -152.36242959355906 Eh           -4145.99249 eV
One Electron Energy:       -232.44444789066375 Eh           -6325.13499 eV
Two Electron Energy:         80.08201829710470 Eh            2179.14250 eV

Virial components:
Potential Energy   :       -222.36196857041250 Eh           -6050.77678 eV
Kinetic Energy     :        111.21411439424391 Eh            3026.28991 eV
Virial Ratio       :          1.99940421035193

---------------
SCF CONVERGENCE
---------------

  Last Energy change         ...    1.1416e-09  Tolerance :   1.0000e-08
  Last MAX-Density change    ...    2.7872e-06  Tolerance :   1.0000e-07
  Last RMS-Density change    ...    9.6364e-07  Tolerance :   5.0000e-09
  Last DIIS Error            ...    1.6842e-03  Tolerance :   5.0000e-07
  Last Orbital Gradient      ...    1.1673e-06  Tolerance :   1.0000e-05
  Last Orbital Rotation      ...    2.2363e-06  Tolerance :   1.0000e-05


Total SCF time: 0 days 0 hours 0 min 0 sec 
Finished LeanSCF after   0.6 sec

Maximum memory used throughout the entire LEANSCF-calculation: 7.7 MB

-------------------------   --------------------
FINAL SINGLE POINT ENERGY      -111.147854176169
-------------------------   --------------------



           ************************************************************
           *        Program running with 8 parallel MPI-processes     *
           *              working on a common directory               *
           ************************************************************
------------------------------------------------------------------------------
                         ORCA SCF GRADIENT CALCULATION
------------------------------------------------------------------------------

Nuc. rep. gradient        (SHARK) ... done (  0.0 sec)
HCore & Overlap gradient  (SHARK) ... done (  0.0 sec)
Two-electron gradient     (SHARK) ... done (  0.1 sec)

------------------
CARTESIAN GRADIENT
------------------

   1   N   :    0.037123476   -0.001712785    0.049041210
   2   N   :    0.097121411   -0.007133438   -0.019207230
   3   H   :   -0.005781504    0.002290674    0.009245002
   4   H   :   -0.004063531    0.004440204   -0.009369836
   5   H   :   -0.058595880   -0.006798200   -0.013895672
   6   H   :   -0.065803972    0.008913545   -0.015813475

Difference to translation invariance:
           :   -0.0000000000   -0.0000000000   -0.0000000000

Difference to rotation invariance:
           :   -0.0000008691   -0.0000000470    0.0000002135

Norm of the Cartesian gradient     ...    0.1490608108
RMS gradient                       ...    0.0351339700
MAX gradient                       ...    0.0971214107

-------
TIMINGS
-------

Total SCF gradient time     ....        0.072 sec

Densities                   ....       0.000 sec  (  0.2%)
One electron gradient       ....       0.010 sec  ( 13.3%)
Two electron gradient       ....       0.062 sec  ( 86.3%)

Maximum memory used throughout the entire SCFGRAD-calculation: 13.5 MB
------------------------------------------------------------------------------
                         ORCA GEOMETRY RELAXATION STEP
------------------------------------------------------------------------------

Reading the OPT-File                    .... done
Getting information on internals        .... done
Copying old internal coords+grads       .... done
Making the new internal coordinates     .... (2022 redundants) done
Validating the new internal coordinates .... (2022 redundants) done
Calculating the B-matrix                .... done
Calculating the G,G- and P matrices     .... done
Transforming gradient to internals      .... done
Projecting the internal gradient        .... done
Number of atoms                         ....   6
Number of internal coordinates          ....  15
Current Energy                          ....  -111.147854176 Eh
Current gradient norm                   ....     0.149060811 Eh/bohr
Maximum allowed component of the step   ....  0.300
Current trust radius                    ....  0.300
Updating the Hessian (BFGS)             .... done
Forming the augmented Hessian           .... done
Diagonalizing the augmented Hessian     .... done
Last element of RFO vector              ....  0.872586773
Lowest eigenvalues of augmented Hessian:
 -0.090248247  0.014622502  0.104143006  0.125212132  0.305659823
Length of the computed step             ....  0.559782874
Warning: the length of the step is outside the trust region - taking restricted step instead
The input lambda is                     ....     0.013531
   iter:   5  x=   -0.005436  g=   81.532389 f(x)=     1.014328
   iter:  10  x=   -0.330761  g=    0.384633 f(x)=     0.008559
The output lambda is                    ....    -0.332368 (14 iterations)
The final length of the internal step   ....  0.300000000
Converting the step to Cartesian space:
 Initial RMS(Int)=    0.0774596669
Transforming coordinates:
 Iter   0:  RMS(Cart)=    0.1011187140 RMS(Int)=    0.0768104177
 Iter   5:  RMS(Cart)=    0.0000133183 RMS(Int)=    0.0000159741
done
Storing new coordinates                 .... done
The predicted energy change is          ....    -0.039931564
Previously predicted energy change      ....    -0.071846715
Actually observed energy change         ....    -0.067302829
Ratio of predicted to observed change   ....     0.936755827
New trust radius                        ....     0.450000000

                                .--------------------.
          ----------------------|Geometry convergence|-------------------------
          Item                value                   Tolerance       Converged
          ---------------------------------------------------------------------
          Energy change      -0.0673028288            0.0000050000      NO
          RMS gradient        0.0442619555            0.0001000000      NO
          MAX gradient        0.1202980574            0.0003000000      NO
          RMS step            0.0774596669            0.0020000000      NO
          MAX step            0.1962254482            0.0040000000      NO
          -------------------------------------------------------------------------
          ........................................................
          Max(Bonds)      0.0101      Max(Angles)   11.24
          Max(Dihed)        4.41      Max(Improp)    0.00
          ---------------------------------------------------------------------

The optimization has not yet converged - more geometry cycles are needed


    ---------------------------------------------------------------------------
                         Redundant Internal Coordinates
                            (Angstroem and degrees)

        Definition                    Value    dE/dq     Step     New-Value
    ----------------------------------------------------------------------------
     1. B(N   1,N   0)                1.5256 -0.027778  0.0029    1.5285   
     2. B(H   2,N   0)                1.0117  0.010629 -0.0092    1.0025   
     3. B(H   3,N   0)                1.0121  0.011095 -0.0098    1.0022   
     4. B(H   4,N   1)                1.0139  0.010702 -0.0101    1.0038   
     5. B(H   5,N   1)                1.0093  0.009294 -0.0067    1.0025   
     6. A(H   2,N   0,H   3)          108.36  0.000062    0.02    108.38   
     7. A(N   1,N   0,H   2)          111.02  0.003910   -1.11    109.90   
     8. A(N   1,N   0,H   3)          110.71  0.000680   -0.52    110.19   
     9. A(H   4,N   1,H   5)          110.99 -0.016674    2.49    113.48   
    10. A(N   0,N   1,H   5)           80.46 -0.120298   11.24     91.70   
    11. A(N   0,N   1,H   4)           78.83 -0.106208   10.05     88.88   
    12. D(H   4,N   1,N   0,H   3)   -152.91  0.023806   -4.00   -156.91   
    13. D(H   5,N   1,N   0,H   2)    -27.10 -0.025368    4.41    -22.68   
    14. D(H   5,N   1,N   0,H   3)     93.30 -0.022242    3.43     96.73   
    15. D(H   4,N   1,N   0,H   2)     86.69  0.020680   -3.01     83.68   
    ----------------------------------------------------------------------------

Geometry step timings:
Preparation and reading OPT file:      0.000 s ( 2.677 %)
Internal coordinates            :      0.000 s ( 4.312 %)
B/P matrices and projection     :      0.000 s (15.167 %)
Hessian update/contruction      :      0.000 s (19.926 %)
Making the step                 :      0.000 s (16.208 %)
Converting the step to Cartesian:      0.000 s ( 5.130 %)
Storing new data                :      0.000 s ( 4.089 %)
Checking convergence            :      0.000 s ( 9.219 %)
Final printing                  :      0.000 s (23.123 %)
Total time                      :      0.001 s

Time for energy+gradient        :      2.637 s
Time for complete geometry iter :      3.178 s

         *************************************************************
         *                GEOMETRY OPTIMIZATION CYCLE   3            *
         *************************************************************
---------------------------------
CARTESIAN COORDINATES (ANGSTROEM)
---------------------------------
  N     -0.160367    0.016014   -0.053689
  N      1.367260   -0.010756   -0.008888
  H     -0.517440    0.488404    0.755232
  H     -0.474076    0.505522   -0.870034
  H      1.333006   -0.840375    0.555165
  H      1.411616    0.799191    0.580215

----------------------------
CARTESIAN COORDINATES (A.U.)
----------------------------
  NO LB      ZA    FRAG     MASS         X           Y           Z
   0 N     7.0000    0    14.007   -0.303049    0.030261   -0.101457
   1 N     7.0000    0    14.007    2.583747   -0.020326   -0.016796
   2 H     1.0000    0     1.008   -0.977819    0.922950    1.427181
   3 H     1.0000    0     1.008   -0.895874    0.955298   -1.644126
   4 H     1.0000    0     1.008    2.519017   -1.588079    1.049109
   5 H     1.0000    0     1.008    2.667568    1.510253    1.096447

--------------------------------
INTERNAL COORDINATES (ANGSTROEM)
--------------------------------
 N      0   0   0     0.000000000000     0.00000000     0.00000000
 N      1   0   0     1.528517884826     0.00000000     0.00000000
 H      1   2   0     1.002500092648   109.91204464     0.00000000
 H      1   2   3     1.002223429708   110.19759977   119.40172114
 H      2   1   3     1.003791309471    89.81893280    85.42196981
 H      2   1   3     1.002508798244    92.71071331   335.58928174

---------------------------
INTERNAL COORDINATES (A.U.)
---------------------------
 N      0   0   0     0.000000000000     0.00000000     0.00000000
 N      1   0   0     2.888480193121     0.00000000     0.00000000
 H      1   2   0     1.894450624334   109.91204464     0.00000000
 H      1   2   3     1.893927807148   110.19759977   119.40172114
 H      2   1   3     1.896890670511    89.81893280    85.42196981
 H      2   1   3     1.894467075528    92.71071331   335.58928174



           ************************************************************
           *        Program running with 8 parallel MPI-processes     *
           *              working on a common directory               *
           ************************************************************
------------------------------------------------------------------------------
                   ___                                                        
                  /   \      - P O W E R E D   B Y -                         
                 /     \                                                     
                 |  |  |   _    _      __       _____    __    __             
                 |  |  |  | |  | |    /  \     |  _  \  |  |  /  |          
                  \  \/   | |  | |   /    \    | | | |  |  | /  /          
                 / \  \   | |__| |  /  /\  \   | |_| |  |  |/  /          
                |  |  |   |  __  | /  /__\  \  |    /   |      \           
                |  |  |   | |  | | |   __   |  |    \   |  |\   \          
                \     /   | |  | | |  |  |  |  | |\  \  |  | \   \       
                 \___/    |_|  |_| |__|  |__|  |_| \__\ |__|  \__/        
                                                                              
                      - O R C A' S   B I G   F R I E N D -                    
                                      &                                       
                       - I N T E G R A L  F E E D E R -                       
                                                                              
 v1 FN, 2020, v2 2021, v3 2022-2024                                           
------------------------------------------------------------------------------


----------------------
SHARK INTEGRAL PACKAGE
----------------------

Number of atoms                             ...      6
Number of basis functions                   ...     60
Number of shells                            ...     32
Maximum angular momentum                    ...      2
Integral batch strategy                     ... SHARK/LIBINT Hybrid
RI-J (if used) integral strategy            ... SPLIT-RIJ (Revised 2003 algorithm where possible)
Printlevel                                  ...      1
Contraction scheme used                     ... SEGMENTED contraction
Prescreening option                         ... SCHWARTZ
   Thresh                                   ... 2.500e-11
   Tcut                                     ... 2.500e-12
   Tpresel                                  ... 2.500e-12 
Coulomb Range Separation                    ... NOT USED
Exchange Range Separation                   ... NOT USED
Multipole approximations                    ... NOT USED
Finite Nucleus Model                        ... NOT USED
CABS basis                                  ... NOT available
Auxiliary Coulomb fitting basis             ... NOT available
Auxiliary J/K fitting basis                 ... NOT available
Auxiliary Correlation fitting basis         ... NOT available
Auxiliary 'external' fitting basis          ... NOT available

Checking pre-screening integrals            ... done (  0.0 sec) Dimension = 32
   => SHARK Basis and OBASIS are compatible. Storing Pre-screening
Shell pair information
Shell pair cut-off parameter TPreSel        ...   2.5e-12
Total number of shell pairs                 ...       528
Shell pairs after pre-screening             ...       528
Total number of primitive shell pairs       ...      1765
Primitive shell pairs kept                  ...      1550
          la=0 lb=0:    210 shell pairs
          la=1 lb=0:    200 shell pairs
          la=1 lb=1:     55 shell pairs
          la=2 lb=0:     40 shell pairs
          la=2 lb=1:     20 shell pairs
          la=2 lb=2:      3 shell pairs

Checking whether 4 symmetric matrices of dimension 60 fit in memory
:Max Core in MB      =   4096.00
 MB in use           =      1.88
 MB left             =   4094.12
 MB needed           =      0.06
 Data fit in memory  = YES
Calculating Nuclear repulsion               ... done (  0.0 sec) ENN=     40.855998901883 Eh

Diagonalization of the overlap matrix:
Smallest eigenvalue                        ... 5.794e-03
Time for diagonalization                   ...    0.001 sec
Threshold for overlap eigenvalues          ... 1.000e-07
Number of eigenvalues below threshold      ... 0
Time for construction of square roots      ...    0.000 sec
Total time needed                          ...    0.002 sec

-------------------
DFT GRID GENERATION
-------------------

General Integration Accuracy     IntAcc      ... 4.388
Radial Grid Type                 RadialGrid  ... OptM3 with GC (2021)
Angular Grid (max. ang.)         AngularGrid ... 4 (Lebedev-302)
Angular grid pruning method      GridPruning ... 4 (adaptive)
Weight generation scheme         WeightScheme... mBecke (2022)
Basis function cutoff            BFCut       ... 1.0000e-11
Integration weight cutoff        WCut        ... 1.0000e-14
Partially contracted basis set               ... off
Rotationally invariant grid construction     ... off
Angular grids for H and He will be reduced by one unit

Total number of grid points                  ...    25306
Total number of batches                      ...      399
Average number of points per batch           ...       63
Average number of grid points per atom       ...     4218
Grids setup in   0.1 sec
Initializing property integral containers    ... done (  0.0 sec)

SHARK setup successfully completed in   0.2 seconds

Maximum memory used throughout the entire STARTUP-calculation: 7.7 MB


           ************************************************************
           *        Program running with 8 parallel MPI-processes     *
           *              working on a common directory               *
           ************************************************************
Occupation numbers will be reassigned to an Aufbau configuration
             **** ENERGY FILE WAS UPDATED (n2h4.en.tmp) ****
Finished Guess after   0.4 sec
Maximum memory used throughout the entire GUESS-calculation: 4.1 MB


           ************************************************************
           *        Program running with 8 parallel MPI-processes     *
           *              working on a common directory               *
           ************************************************************
----------------------------------------D-I-I-S--------------------------------------------
Iteration    Energy (Eh)           Delta-E    RMSDP     MaxDP     DIISErr   Damp  Time(sec)
-------------------------------------------------------------------------------------------
               ***  Starting incremental Fock matrix formation  ***
    1    -111.1799673000326436     0.00e+00  2.33e-03  1.45e-02  5.08e-02  0.700   0.0
    2    -111.1817251155559347    -1.76e-03  2.13e-03  1.26e-02  4.00e-02  0.700   0.0
                               ***Turning on AO-DIIS***
    3    -111.1831226188616029    -1.40e-03  2.03e-03  1.09e-02  3.08e-02  0.700   0.0
    4    -111.1841973746552412    -1.07e-03  5.53e-03  2.93e-02  2.24e-02  0.000   0.0
                              *** Initializing SOSCF ***
---------------------------------------S-O-S-C-F--------------------------------------
Iteration    Energy (Eh)           Delta-E    RMSDP     MaxDP     MaxGrad    Time(sec)
--------------------------------------------------------------------------------------
    5    -111.1872333788184619    -3.04e-03  5.26e-04  2.45e-03  1.85e-03     0.0
               *** Restarting incremental Fock matrix formation ***
    6    -111.1872528979568244    -1.95e-05  2.38e-04  7.21e-04  6.05e-04     0.0
    7    -111.1872573339758787    -4.44e-06  2.07e-04  6.63e-04  2.88e-04     0.0
    8    -111.1872585254710373    -1.19e-06  3.66e-05  1.85e-04  9.26e-05     0.0
    9    -111.1872586252877113    -9.98e-08  1.07e-05  3.58e-05  2.35e-05     0.0
   10    -111.1872586324455767    -7.16e-09  4.61e-06  1.46e-05  7.07e-06     0.0
                 **** Energy Check signals convergence ****

               *****************************************************
               *                     SUCCESS                       *
               *           SCF CONVERGED AFTER  10 CYCLES          *
               *****************************************************

             **** ENERGY FILE WAS UPDATED (n2h4.en.tmp) ****

----------------
TOTAL SCF ENERGY
----------------

Total Energy       :       -111.18725863333199 Eh           -3025.55912 eV

Components:
Nuclear Repulsion  :         40.85599890188281 Eh            1111.74825 eV
Electronic Energy  :       -152.04325753521479 Eh           -4137.30737 eV
One Electron Energy:       -231.81325879095277 Eh           -6307.95946 eV
Two Electron Energy:         79.77000125573798 Eh            2170.65209 eV

[...]
Magnitude (Debye)      :      2.091500360



--------------------
Rotational spectrum 
--------------------
 
Rotational constants in cm-1:             4.999072             0.834090             0.832840 
Rotational constants in MHz :        149868.408064         25005.379408         24967.905542 

Dipole components along the rotational axes: 
x,y,z [a.u.] :    -0.000009    -0.004058     0.822833 
x,y,z [Debye]:    -0.000023    -0.010316     2.091475 

 

Dipole moment calculation done in   0.0 sec 

Maximum memory used throughout the entire PROP-calculation: 2.3 MB

----------------------------------------------------------------------------
                           ORCA NUMERICAL FREQUENCIES
                              (8-process run)
----------------------------------------------------------------------------

Number of atoms                ... 6
Central differences            ... used
Translation invariance         ... used
Number of displacements        ... 36 - 6
Numerical increment            ... 5.000e-03 bohr
IR-spectrum generation         ... on
Raman-spectrum generation      ... off
Surface Crossing Hessian       ... off

The output will be reduced. Please look at the following files:
SCF program output             ... >n2h4.lastscf
Integral program output        ... >n2h4.lastint
Gradient program output        ... >n2h4.lastgrad
Dipole moment program output   ... >n2h4.lastmom

List of participating nodes    ...  n2h4.hostnames

	<< Calculating gradient on displaced geometry   6 (of  30) >>
	<< Calculating gradient on displaced geometry   1 (of  30) >>
	<< Calculating gradient on displaced geometry   2 (of  30) >>
	<< Calculating gradient on displaced geometry   3 (of  30) >>
	<< Calculating gradient on displaced geometry   8 (of  30) >>
	<< Calculating gradient on displaced geometry   4 (of  30) >>
	<< Calculating gradient on displaced geometry   5 (of  30) >>
	<< Calculating gradient on displaced geometry   7 (of  30) >>
	<< Calculating gradient on displaced geometry  10 (of  30) >>
	<< Calculating gradient on displaced geometry   9 (of  30) >>
	<< Calculating gradient on displaced geometry  11 (of  30) >>
	<< Calculating gradient on displaced geometry  12 (of  30) >>
	<< Calculating gradient on displaced geometry  14 (of  30) >>
	<< Calculating gradient on displaced geometry  13 (of  30) >>
	<< Calculating gradient on displaced geometry  15 (of  30) >>
	<< Calculating gradient on displaced geometry  16 (of  30) >>
	<< Calculating gradient on displaced geometry  18 (of  30) >>
	<< Calculating gradient on displaced geometry  17 (of  30) >>
	<< Calculating gradient on displaced geometry  19 (of  30) >>
	<< Calculating gradient on displaced geometry  20 (of  30) >>
	<< Calculating gradient on displaced geometry  21 (of  30) >>
	<< Calculating gradient on displaced geometry  22 (of  30) >>
	<< Calculating gradient on displaced geometry  23 (of  30) >>
	<< Calculating gradient on displaced geometry  24 (of  30) >>
	<< Calculating gradient on displaced geometry  25 (of  30) >>
	<< Calculating gradient on displaced geometry  26 (of  30) >>
	<< Calculating gradient on displaced geometry  27 (of  30) >>
	<< Calculating gradient on displaced geometry  28 (of  30) >>
	<< Calculating gradient on displaced geometry  29 (of  30) >>
	<< Calculating gradient on displaced geometry  30 (of  30) >>

-----------------------
VIBRATIONAL FREQUENCIES
-----------------------

Scaling factor for frequencies =  1.000000000  (already applied!)

     0:       0.00 cm**-1
     1:       0.00 cm**-1
     2:       0.00 cm**-1
     3:       0.00 cm**-1
     4:       0.00 cm**-1
     5:       0.00 cm**-1
     6:     473.21 cm**-1
     7:     956.79 cm**-1
     8:    1077.86 cm**-1
     9:    1216.50 cm**-1
    10:    1416.59 cm**-1
    11:    1450.49 cm**-1
    12:    1821.36 cm**-1
    13:    1839.52 cm**-1
    14:    3701.82 cm**-1
    15:    3711.80 cm**-1
    16:    3804.01 cm**-1
    17:    3810.64 cm**-1


------------
NORMAL MODES
------------

These modes are the Cartesian displacements weighted by the diagonal matrix
M(i,i)=1/sqrt(m[i]) where m[i] is the mass of the displaced atom
Thus, these vectors are normalized but *not* orthogonal

                  0          1          2          3          4          5    
      0       0.000000   0.000000   0.000000   0.000000   0.000000   0.000000
      1       0.000000   0.000000   0.000000   0.000000   0.000000   0.000000
      2       0.000000   0.000000   0.000000   0.000000   0.000000   0.000000
      3       0.000000   0.000000   0.000000   0.000000   0.000000   0.000000
      4       0.000000   0.000000   0.000000   0.000000   0.000000   0.000000
      5       0.000000   0.000000   0.000000   0.000000   0.000000   0.000000
      6       0.000000   0.000000   0.000000   0.000000   0.000000   0.000000
      7       0.000000   0.000000   0.000000   0.000000   0.000000   0.000000
      8       0.000000   0.000000   0.000000   0.000000   0.000000   0.000000
      9       0.000000   0.000000   0.000000   0.000000   0.000000   0.000000
     10       0.000000   0.000000   0.000000   0.000000   0.000000   0.000000
     11       0.000000   0.000000   0.000000   0.000000   0.000000   0.000000
     12       0.000000   0.000000   0.000000   0.000000   0.000000   0.000000
     13       0.000000   0.000000   0.000000   0.000000   0.000000   0.000000
     14       0.000000   0.000000   0.000000   0.000000   0.000000   0.000000
     15       0.000000   0.000000   0.000000   0.000000   0.000000   0.000000
     16       0.000000   0.000000   0.000000   0.000000   0.000000   0.000000
     17       0.000000   0.000000   0.000000   0.000000   0.000000   0.000000
                  6          7          8          9         10         11    
      0       0.007211   0.123610  -0.040984   0.240754  -0.002889  -0.030283
      1       0.004888   0.072216  -0.066080  -0.036849   0.057180   0.059062
      2      -0.036757   0.001943  -0.012297   0.014465   0.060449  -0.062976
      3      -0.005418  -0.127083  -0.045671  -0.238769   0.004196   0.030424
      4      -0.037218  -0.006785   0.008195   0.002289  -0.059482  -0.062271
      5       0.003535   0.065045   0.064125  -0.050093  -0.058101   0.059600
      6      -0.042664  -0.336741   0.165403   0.575151  -0.473538   0.418819
      7      -0.439748  -0.417723   0.351547   0.214644  -0.133875  -0.032644
      8       0.205099   0.011599  -0.119649   0.052913  -0.091518   0.213699
      9       0.028221  -0.136965   0.418269   0.159315   0.474196  -0.509827
     10       0.456865  -0.381422   0.378585   0.129508  -0.034342  -0.115786
     11       0.227576  -0.169393   0.097061   0.132259  -0.112136  -0.027426
     12      -0.065281   0.165163   0.443190  -0.172841   0.469358   0.511564
     13       0.213001  -0.151049  -0.064102   0.120480   0.136111   0.002139
     14       0.460296  -0.376121  -0.357823   0.124880   0.062065  -0.088170
     15       0.054807   0.356811   0.177276  -0.589209  -0.488187  -0.422510
     16       0.219131   0.040986   0.138331   0.015610   0.064103   0.190889
     17      -0.431327  -0.396940  -0.339787   0.185025   0.108967  -0.051184
                 12         13         14         15         16         17    
      0      -0.050096  -0.040002   0.024590  -0.024803  -0.000584   0.002822
      1       0.015289   0.013477  -0.028773   0.028980  -0.009320  -0.012129
      2      -0.020972   0.012396  -0.019006   0.010795   0.058015   0.054724
      3      -0.049664   0.039205   0.020884   0.023520  -0.001965   0.005178
      4       0.018926   0.013924   0.018883   0.012020   0.056924  -0.056193
      5      -0.017295   0.016266   0.029211   0.031907  -0.007536   0.011017
      6       0.384315   0.267447  -0.276746   0.240364   0.155375   0.109681
      7      -0.214270  -0.210786   0.279251  -0.249986  -0.178435  -0.132889
      8       0.319046   0.286518   0.527561  -0.465783  -0.291885  -0.208441
      9       0.324419   0.446943  -0.064530   0.086315  -0.138602  -0.149649
     10      -0.211318  -0.198067   0.124711  -0.162625   0.301162   0.312892
     11      -0.242475  -0.231745  -0.259749   0.324619  -0.506939  -0.540411
     12       0.291852  -0.426934  -0.067948  -0.098734   0.145957  -0.165425
     13       0.249683  -0.253902   0.245390   0.336339  -0.493638   0.550900
     14       0.231237  -0.231604  -0.115035  -0.165091   0.288274  -0.313679
     15       0.385653  -0.276376  -0.222671  -0.210116  -0.127305   0.094233
     16      -0.299549   0.281995  -0.511916  -0.493457  -0.290588   0.218485
     17       0.223938  -0.221450  -0.294581  -0.287123  -0.190892   0.148998


-----------
IR SPECTRUM
-----------

 Mode   freq       eps      Int      T**2         TX        TY        TZ
       cm**-1   L/(mol*cm) km/mol    a.u.
----------------------------------------------------------------------------
  6:    473.21   0.009144   46.21  0.006030  (-0.002785  0.054186  0.055555)
  7:    956.79   0.018619   94.09  0.006073  ( 0.003154 -0.054383 -0.055725)
  8:   1077.86   0.033381  168.69  0.009664  ( 0.077201  0.045546 -0.040372)
  9:   1216.50   0.001070    5.41  0.000275  (-0.000908  0.011501  0.011894)
 10:   1416.59   0.001717    8.68  0.000378  ( 0.000547 -0.013959  0.013529)
 11:   1450.49   0.001286    6.50  0.000277  ( 0.000478 -0.011526 -0.011982)
 12:   1821.36   0.003196   16.15  0.000548  ( 0.008320 -0.015580  0.015349)
 13:   1839.52   0.002939   14.85  0.000499  ( 0.000750 -0.015420 -0.016134)
 14:   3701.82   0.002294   11.59  0.000193  ( 0.013565  0.002448 -0.001847)
 15:   3711.80   0.000111    0.56  0.000009  ( 0.000103  0.002188  0.002128)
 16:   3804.01   0.000006    0.03  0.000001  (-0.000009 -0.000448 -0.000563)
 17:   3810.64   0.000427    2.16  0.000035  (-0.000094  0.004261 -0.004103)

* The epsilon (eps) is given for a Dirac delta lineshape.
** The dipole moment derivative (T) already includes vibrational overlap.

The first frequency considered to be a vibration is 6
The total number of vibrations considered is 12


--------------------------
THERMOCHEMISTRY AT 298.15K
--------------------------

Temperature         ...   298.15 K
Pressure            ...     1.00 atm
Total Mass          ...    32.05 AMU
Quasi RRHO          ...     True
Cut-Off Frequency   ...     1.00 cm^-1

Throughout the following assumptions are being made:
  (1) The electronic state is orbitally nondegenerate
  (2) There are no thermally accessible electronically excited states
  (3) Hindered rotations indicated by low frequency modes are not
      treated as such but are treated as vibrations and this may
      cause some error
  (4) All equations used are the standard statistical mechanics
      equations for an ideal gas
  (5) All vibrations are strictly harmonic

freq.     473.21  E(vib)   ...       0.15 
freq.     956.79  E(vib)   ...       0.03 
freq.    1077.86  E(vib)   ...       0.02 
freq.    1216.50  E(vib)   ...       0.01 
freq.    1416.59  E(vib)   ...       0.00 
freq.    1450.49  E(vib)   ...       0.00 
freq.    1821.36  E(vib)   ...       0.00 
freq.    1839.52  E(vib)   ...       0.00 
freq.    3701.82  E(vib)   ...       0.00 
freq.    3711.80  E(vib)   ...       0.00 
freq.    3804.01  E(vib)   ...       0.00 
freq.    3810.64  E(vib)   ...       0.00 

------------
INNER ENERGY
------------

The inner energy is: U= E(el) + E(ZPE) + E(vib) + E(rot) + E(trans)
    E(el)   - is the total energy from the electronic structure calculation
              = E(kin-el) + E(nuc-el) + E(el-el) + E(nuc-nuc)
    E(ZPE)  - the the zero temperature vibrational energy from the frequency calculation
    E(vib)  - the the finite temperature correction to E(ZPE) due to population
              of excited vibrational states
    E(rot)  - is the rotational thermal energy
    E(trans)- is the translational thermal energy

Summary of contributions to the inner energy U:
Electronic energy                ...   -111.21168378 Eh
Zero point energy                ...      0.05759348 Eh      36.14 kcal/mol
Thermal vibrational correction   ...      0.00034653 Eh       0.22 kcal/mol
Thermal rotational correction    ...      0.00141627 Eh       0.89 kcal/mol
Thermal translational correction ...      0.00141627 Eh       0.89 kcal/mol
-----------------------------------------------------------------------
Total thermal energy                   -111.15091123 Eh


Summary of corrections to the electronic energy:
(perhaps to be used in another calculation)
Total thermal correction                  0.00317907 Eh       1.99 kcal/mol
Non-thermal (ZPE) correction              0.05759348 Eh      36.14 kcal/mol
-----------------------------------------------------------------------
Total correction                          0.06077255 Eh      38.14 kcal/mol


--------
ENTHALPY
--------

The enthalpy is H = U + kB*T
                kB is Boltzmann's constant
Total thermal energy              ...   -111.15091123 Eh 
Thermal Enthalpy correction       ...      0.00094421 Eh       0.59 kcal/mol
-----------------------------------------------------------------------
Total Enthalpy                    ...   -111.14996702 Eh


Note: Only C1 symmetry has been detected, increase convergence thresholds 
      if your molecule has a higher symmetry. Symmetry factor of 1.0 is   
      used for the rotational entropy correction. 
 

Note: Rotational entropy computed according to Herzberg 
Infrared and Raman Spectra, Chapter V,1, Van Nostrand Reinhold, 1945 
Point Group:  C1, Symmetry Number:   1  
Rotational constants in cm-1:     4.999076     0.834090     0.832840 

Vibrational entropy computed according to the QRRHO of S. Grimme
Chem.Eur.J. 2012 18 9955 using a reference frequency of 100.0 cm-1


-------
ENTROPY
-------

The entropy contributions are T*S = T*(S(el)+S(vib)+S(rot)+S(trans))
     S(el)   - electronic entropy
     S(vib)  - vibrational entropy
     S(rot)  - rotational entropy
     S(trans)- translational entropy
The entropies will be listed as multiplied by the temperature to get
units of energy

Electronic entropy                ...      0.00000000 Eh      0.00 kcal/mol
Vibrational entropy               ...      0.00046804 Eh      0.29 kcal/mol
Rotational entropy                ...      0.00892309 Eh      5.60 kcal/mol
Translational entropy             ...      0.01725953 Eh     10.83 kcal/mol
-----------------------------------------------------------------------
Final entropy term                ...      0.02665066 Eh     16.72 kcal/mol

In case the symmetry of your molecule has not been determined correctly
or in case you have a reason to use a different symmetry number we print 
out the resulting rotational entropy values for sn=1,12:

 non-linear molecules -----------------------------------
|  sn= 1 | S(rot)=       0.00892309 Eh      5.60 kcal/mol|
|  sn= 2 | S(rot)=       0.00826864 Eh      5.19 kcal/mol|
|  sn= 3 | S(rot)=       0.00788580 Eh      4.95 kcal/mol|
|  sn= 4 | S(rot)=       0.00761418 Eh      4.78 kcal/mol|
|  sn= 5 | S(rot)=       0.00740349 Eh      4.65 kcal/mol|
|  sn= 6 | S(rot)=       0.00723135 Eh      4.54 kcal/mol|
|  sn= 7 | S(rot)=       0.00708580 Eh      4.45 kcal/mol|
|  sn= 8 | S(rot)=       0.00695972 Eh      4.37 kcal/mol|
|  sn= 9 | S(rot)=       0.00684851 Eh      4.30 kcal/mol|
|  sn=10 | S(rot)=       0.00674904 Eh      4.24 kcal/mol|
|  sn=11 | S(rot)=       0.00665905 Eh      4.18 kcal/mol|
|  sn=12 | S(rot)=       0.00657689 Eh      4.13 kcal/mol|
 linear molecules ---------------------------------------
|  Dinfh | S(rot)=       0.00549851 Eh      3.45 kcal/mol|
|  Cinfv | S(rot)=       0.00615297 Eh      3.86 kcal/mol|
 --------------------------------------------------------


-------------------
GIBBS FREE ENERGY
-------------------

The Gibbs free energy is G = H - T*S

Total enthalpy                    ...   -111.14996702 Eh 
Total entropy correction          ...     -0.02665066 Eh    -16.72 kcal/mol
-----------------------------------------------------------------------
Final Gibbs free energy         ...   -111.17661767 Eh

For completeness - the Gibbs free energy minus the electronic energy
G-E(el)                           ...      0.03506610 Eh     22.00 kcal/mol



--------------------------------
SUGGESTED CITATIONS FOR THIS RUN
--------------------------------

Below you find a list of papers that are relevant to this ORCA run
We neither can nor want to force you to cite these papers, but we appreciate if you do
You receive ORCA, which is the product of decades of hard work by many enthusiastic individuals, for free
The only thing we kindly ask in return is that you cite our papers,
We deeply appreciate it, if you show your appreciation for ORCA by not just citing the generic ORCA reference.

Please note that relegating all ORCA citations to the supporting information does *not* help us.
SI sections are not indexed - citations you put there will not count into any citation statistics
But we need these citations in order to attract the funding resources that allow us to do what we are doing

Therefore, if you are a happy ORCA user, please consider citing a few of the papers listed below in the main body of your paper

In addition to the list printed below, the program has created the file n2h4.bibtex that contains the list in bibtex format
You can import this file easily into all common literature databanks and citation aid programs


List of essential papers. We consider these as the minimum necessary citations

  1. Neese, F.
     Software update: the ORCA program system, version 6.0
     WIRES Comput. Molec. Sci. 2025 15(1), e70019
     doi.org/10.1002/wcms.7019

List of papers to cite with high priority. The work reported in these papers was absolutely
necessary for this run to complete.
Our perspective: the developers of density functionals and basis sets usually get cited in chemistry papers
Good! But without the algorithms to do something with them, the functionals or basis sets would not do anything.
Hence, in our opinion, the algorithm design and method developments papers are equally worthy of getting cited

  1. Neese, F.
     The SHARK Integral Generation and Digestion System
     J. Comp. Chem. 2022 44(3), 381
     doi.org/10.1002/jcc.26942

List of suggested additional citations. These are papers that are important in the 'surrounding' of 
of this run, or papers that preceded the highly important papers. If you like your results we are grateful for a citation.

  1. Neese, F.
     The ORCA program system
     WIRES Comput. Molec. Sci. 2012 2(1), 73-78
     doi.org/10.1002/wcms.81
  2. Neese, F.
     Software update: the ORCA program system, version 4.0
     WIRES Comput. Molec. Sci. 2018 8(1), 1-6
     doi.org/10.1002/wcms.1327
  3. Neese, F.; Wennmohs, F.; Becker, U.; Riplinger, C.
     The ORCA quantum chemistry program package
     J. Chem. Phys. 2020 152(22), 224108
     doi.org/10.1063/5.0004608
  4. Neese, F.
     Software update: The ORCA program system—Version 5.0
     WIRES Comput. Molec. Sci. 2022 12(1), e1606
     doi.org/10.1002/wcms.1606

List of optional additional citations

  1. Neese, F.
     Approximate second-order SCF convergence for spin unrestricted wavefunctions
     Chem. Phys. Lett. 2000 325(1-3), 93-98
     doi.org/10.1016/s0009-2614(00)00662-x

Timings for individual modules:

Sum of individual times          ...       38.659 sec (=   0.644 min)
Startup calculation              ...        7.380 sec (=   0.123 min)  19.1 %
SCF iterations                   ...       14.743 sec (=   0.246 min)  38.1 %
Property calculations            ...        0.568 sec (=   0.009 min)   1.5 %
SCF Gradient evaluation          ...        6.327 sec (=   0.105 min)  16.4 %
Geometry relaxation              ...        0.017 sec (=   0.000 min)   0.0 %
Numerical frequency calculation  ...        9.623 sec (=   0.160 min)  24.9 %
                             ****ORCA TERMINATED NORMALLY****
TOTAL RUN TIME: 0 days 0 hours 0 minutes 41 seconds 596 msec
