
                                 *****************
                                 * O   R   C   A *
                                 *****************

                                            #,                                       
                                            ###                                      
                                            ####                                     
                                            #####                                    
                                            ######                                   
                                           ########,                                 
                                     ,,################,,,,,                         
                               ,,#################################,,                 
                          ,,##########################################,,             
                       ,#########################################, ''#####,          
                    ,#############################################,,   '####,        
                  ,##################################################,,,,####,       
                ,###########''''           ''''###############################       
              ,#####''   ,,,,##########,,,,          '''####'''          '####       
            ,##' ,,,,###########################,,,                        '##       
           ' ,,###''''                  '''############,,,                           
         ,,##''                                '''############,,,,        ,,,,,,###''
      ,#''                                            '''#######################'''  
     '                                                          ''''####''''         
             ,#######,   #######,   ,#######,      ##                                
            ,#'     '#,  ##    ##  ,#'     '#,    #''#        ,####,    ,#,          
            ##       ##  ##   ,#'  ##            #'  '#       #'       ,# #          
            ##       ##  #######   ##           ,######,      #####,      #          
            '#,     ,#'  ##    ##  '#,     ,#' ,#      #,     #,   #      #          
             '#######'   ##     ##  '#######'  #'      '#     '####' #    #          



                #########################################################
                #                        -***-                          #
                #          Department of theory and spectroscopy        #
                #                                                       #
                #                      Frank Neese                      #
                #                                                       #
                #     Directorship, Architecture, Infrastructure        #
                #                    SHARK, DRIVERS                     #
                #        Core code/Algorithms in most modules           #
                #                                                       #
                #        Max Planck Institute fuer Kohlenforschung      #
                #                Kaiser Wilhelm Platz 1                 #
                #                 D-45470 Muelheim/Ruhr                 #
                #                      Germany                          #
                #                                                       #
                #                  All rights reserved                  #
                #                        -***-                          #
                #########################################################


                         Program Version 6.1.0  -  RELEASE   -
                                (GIT: $679e74b$)
                          ($2025-06-10 18:02:51 +0200$)


 With contributions from (in alphabetic order):
[Max-Planck-Institut fuer Kohlenforschung]                               
  Daniel Aravena         : Magnetic Suceptibility                        
  Michael Atanasov       : Ab Initio Ligand Field Theory (pilot matlab implementation)
  Alexander A. Auer      : GIAO ZORA, VPT2 properties, NMR spectrum      
  Ute Becker             : All parallelization in ORCA, NUMFREQ, NUMCALC 
  Giovanni Bistoni       : ED, misc. LED, open-shell LED, HFLD           
  Dmytro Bykov           : pre 5.0 version of the SCF Hessian            
  Marcos Casanova-Páez   : Triplet and SCS-CIS(D). UHF-(DLPNO)-IP/EA/STEOM-CCSD. UHF-CVS-IP/STEOM-CCSD   
  Vijay G. Chilkuri      : MRCI spin determinant printing, contributions to CSF-ICE 
  Pauline Colinet        : FMM embedding                                 
  Dipayan Datta          : RHF DLPNO-CCSD density                        
  Achintya Kumar Dutta   : EOM-CC, STEOM-CC                              
  Nicolas Foglia         : Exact transition moments, OPA infrastructure, MCD improvements    
  Dmitry Ganyushin       : Spin-Orbit,Spin-Spin,Magnetic field MRCI      
  Miquel Garcia-Rates    : C-PCM and meta-GGA Hessian, CCSD/C-PCM, Gaussian charge scheme 
  Tiago L. C. Gouveia    : GS-ROHF, GS-ROCIS                             
  Yang Guo               : DLPNO-NEVPT2, F12-NEVPT2, CIM, IAO-localization        
  Andreas Hansen         : Spin unrestricted coupled pair/coupled cluster methods 
  Ingolf Harden          : AUTO-CI MPn and infrastructure                
  Benjamin Helmich-Paris : MC-RPA, TRAH-(SCF,CASSCF), AVAS, COSX integrals, SCF dyn. polar., MC-PDFT, srDFT 
  Lee Huntington         : MR-EOM, pCC                                   
  Robert Izsak           : Overlap fitted RIJCOSX, COSX-SCS-MP3, EOM     
  Riya Kayal             : Wick's Theorem for AUTO-CI, AUTO-CI UHF-CCSDT 
  Emily Kempfer          : AUTO-CI RHF CISDT and CCSDT, approximate NEVPT4
  Christian Kollmar      : KDIIS, OOCD, Brueckner-CCSD(T), CCSD density, CASPT2, CASPT2-K, improved NEVPT2 
  Axel Koslowski         : Symmetry handling                             
  Simone Kossmann        : meta-GGA functionals, TD-DFT gradient, OOMP2, (MP2 Hessian; deprecated post 5.0) 
  Lucas Lang             : DCDCAS, Hyperfine gauge corrections, ICE-SOC+SSC
  Marvin Lechner         : AUTO-CI (C++ implementation), FIC-MRCC        
  Spencer Leger          : CASSCF response                               
  Dagmar Lenk            : GEPOL surface, SMD, ORCA-2-JSON               
  Dimitrios Liakos       : Extrapolation schemes; Compound Job, Property file
  Dimitrios Manganas     : Further ROCIS development; embedding schemes. LFT, Crystal Embedding 
  Dimitrios Pantazis     : SARC Basis sets                               
  Anastasios Papadopoulos: AUTO-CI, single reference methods and gradients 
  Taras Petrenko         : pre 6.0 DFT Hessian and TD-DFT gradient,  ECA, NRVS 
  Petra Pikulova         : Analytic Raman intensities                    
  Peter Pinski           : DLPNO-MP2, DLPNO-MP2 Gradient                 
  Shashank Vittal Rao    : ES-AILFT, MagRelax                            
  Christoph Reimann      : Effective Core Potentials                     
  Marius Retegan         : Local ZFS, SOC                                
  Christoph Riplinger    : Optimizer, TS searches, QM/MM, DLPNO-CCSD(T), (RO)-DLPNO pert. Triples 
  Michael Roemelt        : Original ROCIS implementation, recursive CI coupling coefficients
  Masaaki Saitow         : Open-shell DLPNO-CCSD energy and density      
  Barbara Sandhoefer     : DKH picture change effects                    
  Yorick L. A. Schmerwitz: GMF and freeze-and-release deltaSCF, NEB S-IDPP initial path                    
  Kantharuban Sivalingam : CASSCF convergence/infrastructure, NEVPT2, NEVPT3, NEVPT4(SD), FIC-MRCI and CEPA variants
  Bernardo de Souza      : ESD, SOC TD-DFT                               
  Georgi L. Stoychev     : AutoAux, RI-MP2 NMR, DLPNO-MP2 response, X2C  
  Van Anh Tran           : RI-MP2 g-tensors                              
  Willem Van den Heuvel  : Paramagnetic NMR                              
  Zikuan Wang            : NOTCH, Electric field optimization            
  Frank Wennmohs         : Technical directorship and infrastructure     
  Hang Xu                : AUTO-CI-Response properties                   
                                                                         
[FACCTs GmbH]                                                            
  Markus Bursch, Nicolas Foglia, Miquel Garcia-Rates, Ingolf Harden, Hagen Neugebauer, Anastasios Papadopoulos, 
  Christoph Riplinger, Bernardo de Souza, Georgi L. Stoychev                                                    
                                                                 
  APM, various basis sets, CI-OPT, improved COSX, DLPNO-Multilevel,           
  DOCKER, DRACO, updates on ESD, Fragmentator, GOAT, IRC, LR-CPCM, L-BFGS, MBIS, meta-GGA TD-DFT gradient, ML-optimized integration grids, 
  MM, NACMEs, nearIR, NEB, NEB-TS, NL-DFT gradient (VV10), 2- and 3-layer-ONIOM, interface openCOSMO-RS, QMMM,   
  Crystal-QMMM, RESP, rigid body optimization, SF, symmetry and pop. for TD-DFT, various functionals, SOLVATOR                                   
                                                                         
[Other institutions]                                                     
  V. Asgeirsson          : NEB                                           
  Christoph Bannwarth    : sTDA-DFT, sTD-DFT, PBEh-3c, B97-3c, D3        
  Giovanni Bistoni       : ETS/NOCV, ADLD/ADEX, COVALED                  
  Martin Brehm           : Molecular dynamics                            
  Ronald Cardenas        : ETS/NOCV                                      
  Martina Colucci        : COVALED                                       
  Sebastian Ehlert       : rSCAN, r2SCAN, r2SCAN-3c, D4, dhf basis sets  
  Marvin Friede          : D4 for Fr, Ra, Ac-Lr                          
  Lars Goerigk           : TD-DFT with DH, B97 family of functionals     
  Stefan Grimme          : VdW corrections, initial TS optimization, DFT functionals, gCP, sTDA/sTD-DF 
  Waldemar Hujo          : DFT-NL                                        
  H. Jonsson             : NEB                                           
  Holger Kruse           : gCP                                           
  Marcel Mueller         : wB97X-3c, vDZP basis set                      
  Hagen Neugebauer       : wr2SCAN, Native XTB                           
  Gianluca Regni         : ADLD/ADEX                                     
  Tobias Risthaus        : pre 6.0 range-separated hybrid DFT and stability analysis
  Lukas Wittmann         : regularized MP2, r2SCAN double-hybrids, wr2SCAN        
                                                                         
We gratefully acknowledge several colleagues who have allowed us to      
interface, adapt or use parts of their codes:                            
  Ed Valeev, F. Pavosevic, A. Kumar             : LibInt (2-el integral package), F12 methods 
  Garnet Chan, S. Sharma, J. Yang, R. Olivares  : DMRG                   
  Ulf Ekstrom                                   : XCFun DFT Library      
  Mihaly Kallay                                 : mrcc  (arbitrary order and MRCC methods)
  Frank Weinhold                                : gennbo (NPA and NBO analysis)           
  Simon Mueller                                 : openCOSMO-RS                            
  Christopher J. Cramer and Donald G. Truhlar   : smd solvation model                     
  S Lehtola, MJT Oliveira, MAL Marques          : LibXC Library                           
  Liviu Ungur et al                             : ANISO software                          


 Your calculation uses the libint2 library for the computation of 2-el integrals
 For citations please refer to: http://libint.valeyev.net

 Your ORCA version has been built with support for libXC version: 7.0.0
 For citations please refer to: https://libxc.gitlab.io

 This ORCA versions uses:
   CBLAS   interface :  Fast vector & matrix operations
   LAPACKE interface :  Fast linear algebra routines
   SCALAPACK package :  Parallel linear algebra routines
   Shared memory     :  Shared parallel matrices
   BLAS/LAPACK       :  OpenBLAS 0.3.29  USE64BITINT DYNAMIC_ARCH NO_AFFINITY Zen SINGLE_THREADED
        Core in use  :  Zen
   Copyright (c) 2011-2014, The OpenBLAS Project


  ***********************************
  * Starting time: Mon Oct 20 09:14:32 2025
  * Host name:     ae2-c724
  * Process ID:    2098010
  * Working dir.:  /home/jsc/Lehre/TCGPR/practical_course_bachelor/n2h4/b3lyp_6_311_g_dp/test
  ***********************************

Warning: RI is on but no J-basis has been assigned. Assigning Def2/J (nothing to worry about!)
================================================================================

----- Orbital basis set information -----
Your calculation utilizes the basis: 6-311G(d,p)
   H, Li - Ne  : R. Krishnan, J. S. Binkley, R. Seeger and J. A. Pople, J. Chem. Phys. 72, 650 (1980).
   Na - Ar     : A. D. McLean and G. S. Chandler J. Chem. Phys. 72, 5639, (1980).
   K  - Ca     : J.-P. Blaudeau, M. P. McGrath, L. A. Curtiss and L. Radom, J. Chem. Phys. 107, 5016 (1997).
   Ga - Kr     : L. A. Curtiss, M. P. McGrath, J.-P. Blandeau, N. E. Davis, R. C. Binning and L. Radom, J. Chem. Phys. 103, 6104 (1995).
   Pol./Diff.
   H, Li - Cl  : T. Clark, J. Chandrasekhar and P. v. R. Schleyer, J. Comp. Chem. 4, 294 (1983).
   H - Ne      : M. J. Frisch, J. A. Pople and J. S. Binkley, J. Chem. Phys. 80, 3265 (1984).

----- AuxJ basis set information -----
Your calculation utilizes the auxiliary basis: def2/J
   H-Rn: F. Weigend, Phys. Chem. Chem. Phys. 8, 1057 (2006).
   Fr-Lr: K. Eichkorn, F. Weigend, O. Treutler, R. Ahlrichs; Theor. Chem. Acc. 97, 119 (1997).

================================================================================
                                        WARNINGS
                       Please study these warnings very carefully!
================================================================================


WARNING: Analytical and numerical frequencies both set to true
  ===> : Disabling Anfreq

WARNING: The environment variable RSH_COMMAND is not set!
  ===> : All Displacements for the Numerical Hessian or Gradient calculation
         will be started on localhost

WARNING: Geometry Optimization
  ===> : Switching off AutoStart
         For restart on a previous wavefunction, please use MOREAD

================================================================================
                                       INPUT FILE
================================================================================
NAME = n2h4.inp
|  1> ! B3LYP 6-311G(d,p) OPT FREQ NUMFREQ
|  2> %pal nprocs 8 END
|  3> * xyz 0 1
|  4> N    0.000000    0.000000    0.000000
|  5> N    1.452000    0.000000    0.000000
|  6> H   -0.349000    0.479000    0.829000
|  7> H   -0.349000    0.479000   -0.829000
|  8> H    1.103000   -0.829000    0.479000
|  9> H    1.103000    0.829000    0.479000
| 10> *
| 11> 
| 12> 
| 13>                          ****END OF INPUT****
================================================================================

                       *****************************
                       * Geometry Optimization Run *
                       *****************************

Geometry optimization settings:
Update method            Update   .... BFGS
Choice of coordinates    CoordSys .... (2022) Redundant Internals
Initial Hessian          InHess   .... Almloef's Model
Max. no of cycles        MaxIter  .... 50

Convergence Tolerances:
Energy Change            TolE     ....  5.0000e-06 Eh
Max. Gradient            TolMAXG  ....  3.0000e-04 Eh/bohr
RMS Gradient             TolRMSG  ....  1.0000e-04 Eh/bohr
Max. Displacement        TolMAXD  ....  4.0000e-03 bohr
RMS Displacement         TolRMSD  ....  2.0000e-03 bohr
Strict Convergence                .... False

------------------------------------------------------------------------------
                        ORCA OPTIMIZATION COORDINATE SETUP
------------------------------------------------------------------------------

The optimization will be done in redundant internal coordinates (2022)
Making redundant internal coordinates   ...  (2022 redundants) done
Evaluating the initial hessian          ...  (Almloef) done
Evaluating the coordinates              ...  done
Calculating the B-matrix                .... done
Calculating the G-matrix                .... done
The number of degrees of freedom        ....   15

    -----------------------------------------------------------------
                    Redundant Internal Coordinates


    -----------------------------------------------------------------
         Definition                    Initial Value    Approx d2E/dq
    -----------------------------------------------------------------
      1. B(N   1,N   0)                  1.4520         0.399113   
      2. B(H   2,N   0)                  1.0191         0.418543   
      3. B(H   3,N   0)                  1.0191         0.418543   
      4. B(H   4,N   1)                  1.0191         0.418543   
      5. B(H   5,N   1)                  1.0191         0.418543   
      6. A(H   2,N   0,H   3)          108.8776         0.300053   
      7. A(N   1,N   0,H   2)          110.0276         0.329215   
      8. A(N   1,N   0,H   3)          110.0276         0.329215   
      9. A(H   4,N   1,H   5)          108.8776         0.300053   
     10. A(N   0,N   1,H   5)           69.9724         0.329215   
     11. A(N   0,N   1,H   4)           69.9724         0.329215   
     12. D(H   4,N   1,N   0,H   3)   -150.0390         0.014534   
     13. D(H   5,N   1,N   0,H   2)    -29.9610         0.014534   
     14. D(H   5,N   1,N   0,H   3)     90.0000         0.014534   
     15. D(H   4,N   1,N   0,H   2)     90.0000         0.014534   
    -----------------------------------------------------------------

Number of atoms                         .... 6
Number of degrees of freedom            .... 15


         *************************************************************
         *                GEOMETRY OPTIMIZATION CYCLE   1            *
         *************************************************************
---------------------------------
CARTESIAN COORDINATES (ANGSTROEM)
---------------------------------
  N      0.000000    0.000000    0.000000
  N      1.452000    0.000000    0.000000
  H     -0.349000    0.479000    0.829000
  H     -0.349000    0.479000   -0.829000
  H      1.103000   -0.829000    0.479000
  H      1.103000    0.829000    0.479000

----------------------------
CARTESIAN COORDINATES (A.U.)
----------------------------
  NO LB      ZA    FRAG     MASS         X           Y           Z
   0 N     7.0000    0    14.007    0.000000    0.000000    0.000000
   1 N     7.0000    0    14.007    2.743882    0.000000    0.000000
   2 H     1.0000    0     1.008   -0.659514    0.905179    1.566583
   3 H     1.0000    0     1.008   -0.659514    0.905179   -1.566583
   4 H     1.0000    0     1.008    2.084368   -1.566583    0.905179
   5 H     1.0000    0     1.008    2.084368    1.566583    0.905179

--------------------------------
INTERNAL COORDINATES (ANGSTROEM)
--------------------------------
 N      0   0   0     0.000000000000     0.00000000     0.00000000
 N      1   0   0     1.452000000000     0.00000000     0.00000000
 H      1   2   0     1.019059860852   110.02758522     0.00000000
 H      1   2   3     1.019059860852   110.02758522   119.96096221
 H      2   1   3     1.019059860852    69.97241478    90.00000000
 H      2   1   3     1.019059860852    69.97241478   330.03903779

---------------------------
INTERNAL COORDINATES (A.U.)
---------------------------
 N      0   0   0     0.000000000000     0.00000000     0.00000000
 N      1   0   0     2.743882346454     0.00000000     0.00000000
 H      1   2   0     1.925744051082   110.02758522     0.00000000
 H      1   2   3     1.925744051082   110.02758522   119.96096221
 H      2   1   3     1.925744051082    69.97241478    90.00000000
 H      2   1   3     1.925744051082    69.97241478   330.03903779

---------------------
BASIS SET INFORMATION
---------------------
There are 2 groups of distinct atoms

 Group   1 Type N   : 11s5p1d contracted to 4s3p1d pattern {6311/311/1}
 Group   2 Type H   : 5s1p contracted to 3s1p pattern {311/1}

Atom   0N    basis set group =>   1
Atom   1N    basis set group =>   1
Atom   2H    basis set group =>   2
Atom   3H    basis set group =>   2
Atom   4H    basis set group =>   2
Atom   5H    basis set group =>   2
---------------------------------
AUXILIARY/J BASIS SET INFORMATION
---------------------------------
There are 2 groups of distinct atoms

 Group   1 Type N   : 12s5p4d2f1g contracted to 6s4p3d1f1g pattern {711111/2111/211/2/1}
 Group   2 Type H   : 5s2p1d contracted to 3s1p1d pattern {311/2/1}

Atom   0N    basis set group =>   1
Atom   1N    basis set group =>   1
Atom   2H    basis set group =>   2
Atom   3H    basis set group =>   2
Atom   4H    basis set group =>   2
Atom   5H    basis set group =>   2


           ************************************************************
           *        Program running with 8 parallel MPI-processes     *
           *              working on a common directory               *
           ************************************************************
------------------------------------------------------------------------------
                             ORCA STARTUP CALCULATIONS
                           -- RI-GTO INTEGRALS CHOSEN --
------------------------------------------------------------------------------
------------------------------------------------------------------------------
                   ___                                                        
                  /   \      - P O W E R E D   B Y -                         
                 /     \                                                     
                 |  |  |   _    _      __       _____    __    __             
                 |  |  |  | |  | |    /  \     |  _  \  |  |  /  |          
                  \  \/   | |  | |   /    \    | | | |  |  | /  /          
                 / \  \   | |__| |  /  /\  \   | |_| |  |  |/  /          
                |  |  |   |  __  | /  /__\  \  |    /   |      \           
                |  |  |   | |  | | |   __   |  |    \   |  |\   \          
                \     /   | |  | | |  |  |  |  | |\  \  |  | \   \       
                 \___/    |_|  |_| |__|  |__|  |_| \__\ |__|  \__/        
                                                                              
                      - O R C A' S   B I G   F R I E N D -                    
                                      &                                       
                       - I N T E G R A L  F E E D E R -                       
                                                                              
 v1 FN, 2020, v2 2021, v3 2022-2024                                           
------------------------------------------------------------------------------


----------------------
SHARK INTEGRAL PACKAGE
----------------------

Number of atoms                             ...      6
Number of basis functions                   ...     60
Number of shells                            ...     32
Maximum angular momentum                    ...      2
Integral batch strategy                     ... SHARK/LIBINT Hybrid
RI-J (if used) integral strategy            ... SPLIT-RIJ (Revised 2003 algorithm where possible)
Printlevel                                  ...      1
Contraction scheme used                     ... SEGMENTED contraction
Prescreening option                         ... SCHWARTZ
   Thresh                                   ... 2.500e-11
   Tcut                                     ... 2.500e-12
   Tpresel                                  ... 2.500e-12 
Coulomb Range Separation                    ... NOT USED
Exchange Range Separation                   ... NOT USED
Multipole approximations                    ... NOT USED
Finite Nucleus Model                        ... NOT USED
CABS basis                                  ... NOT available
Auxiliary Coulomb fitting basis             ... AVAILABLE
   # of basis functions in Aux-J            ...    142
   # of shells in Aux-J                     ...     50
   Maximum angular momentum in Aux-J        ...      4
Auxiliary J/K fitting basis                 ... NOT available
Auxiliary Correlation fitting basis         ... NOT available
Auxiliary 'external' fitting basis          ... NOT available

Checking pre-screening integrals            ... done (  0.0 sec) Dimension = 32
   => SHARK Basis and OBASIS are compatible. Storing Pre-screening
Shell pair information
Shell pair cut-off parameter TPreSel        ...   2.5e-12
Total number of shell pairs                 ...       528
Shell pairs after pre-screening             ...       528
Total number of primitive shell pairs       ...      1765
Primitive shell pairs kept                  ...      1565
          la=0 lb=0:    210 shell pairs
          la=1 lb=0:    200 shell pairs
          la=1 lb=1:     55 shell pairs
          la=2 lb=0:     40 shell pairs
          la=2 lb=1:     20 shell pairs
          la=2 lb=2:      3 shell pairs

Checking whether 4 symmetric matrices of dimension 60 fit in memory
:Max Core in MB      =   4096.00
 MB in use           =      3.86
 MB left             =   4092.14
 MB needed           =      0.06
 Data fit in memory  = YES
Calculating RI/J V-Matrix + Cholesky decomp.... done (  0.0 sec)
Calculating Nuclear repulsion               ... done (  0.0 sec) ENN=     42.843610216170 Eh

Diagonalization of the overlap matrix:
Smallest eigenvalue                        ... 7.052e-03
Time for diagonalization                   ...    0.000 sec
Threshold for overlap eigenvalues          ... 1.000e-07
Number of eigenvalues below threshold      ... 0
Time for construction of square roots      ...    0.000 sec
Total time needed                          ...    0.001 sec

-------------------
DFT GRID GENERATION
-------------------

General Integration Accuracy     IntAcc      ... 4.388
Radial Grid Type                 RadialGrid  ... OptM3 with GC (2021)
Angular Grid (max. ang.)         AngularGrid ... 4 (Lebedev-302)
Angular grid pruning method      GridPruning ... 4 (adaptive)
Weight generation scheme         WeightScheme... mBecke (2022)
Basis function cutoff            BFCut       ... 1.0000e-11
Integration weight cutoff        WCut        ... 1.0000e-14
Partially contracted basis set               ... off
Rotationally invariant grid construction     ... off
Angular grids for H and He will be reduced by one unit

Total number of grid points                  ...    25265
Total number of batches                      ...      397
Average number of points per batch           ...       63
Average number of grid points per atom       ...     4211

--------------------
COSX GRID GENERATION
--------------------

GRIDX 1
-------
General Integration Accuracy     IntAcc      ... 3.816
Radial Grid Type                 RadialGrid  ... OptM3 with GC (2021)
Angular Grid (max. ang.)         AngularGrid ... 1 (Lebedev-50)
Angular grid pruning method      GridPruning ... 4 (adaptive)
Weight generation scheme         WeightScheme... mBecke (2022)
Basis function cutoff            BFCut       ... 1.0000e-11
Integration weight cutoff        WCut        ... 1.0000e-14
Partially contracted basis set               ... on
Rotationally invariant grid construction     ... off
Angular grids for H and He will be reduced by one unit

Total number of grid points                  ...     3272
Total number of batches                      ...       29
Average number of points per batch           ...      112
Average number of grid points per atom       ...      545
UseSFitting                                  ... on

GRIDX 2
-------
General Integration Accuracy     IntAcc      ... 4.020
Radial Grid Type                 RadialGrid  ... OptM3 with GC (2021)
Angular Grid (max. ang.)         AngularGrid ... 2 (Lebedev-110)
Angular grid pruning method      GridPruning ... 4 (adaptive)
Weight generation scheme         WeightScheme... mBecke (2022)
Basis function cutoff            BFCut       ... 1.0000e-11
Integration weight cutoff        WCut        ... 1.0000e-14
Partially contracted basis set               ... on
Rotationally invariant grid construction     ... off
Angular grids for H and He will be reduced by one unit

Total number of grid points                  ...     6893
Total number of batches                      ...       58
Average number of points per batch           ...      118
Average number of grid points per atom       ...     1149
UseSFitting                                  ... on

GRIDX 3
-------
General Integration Accuracy     IntAcc      ... 4.338
Radial Grid Type                 RadialGrid  ... OptM3 with GC (2021)
Angular Grid (max. ang.)         AngularGrid ... 3 (Lebedev-194)
Angular grid pruning method      GridPruning ... 4 (adaptive)
Weight generation scheme         WeightScheme... mBecke (2022)
Basis function cutoff            BFCut       ... 1.0000e-11
Integration weight cutoff        WCut        ... 1.0000e-14
Partially contracted basis set               ... on
Rotationally invariant grid construction     ... off
Angular grids for H and He will be reduced by one unit

Total number of grid points                  ...    15188
Total number of batches                      ...      121
Average number of points per batch           ...      125
Average number of grid points per atom       ...     2531
UseSFitting                                  ... on
Grids setup in   0.2 sec
Initializing property integral containers    ... done (  0.0 sec)

SHARK setup successfully completed in   0.2 seconds

Maximum memory used throughout the entire STARTUP-calculation: 9.7 MB


           ************************************************************
           *        Program running with 8 parallel MPI-processes     *
           *              working on a common directory               *
           ************************************************************
-------------------------------------------------------------------------------
                                 ORCA GUESS
                   Start orbitals & Density for SCF / CASSCF
-------------------------------------------------------------------------------

------------
SCF SETTINGS
------------
Hamiltonian:
 Density Functional     Method          .... DFT(GTOs)
 Exchange Functional    Exchange        .... B88
   X-Alpha parameter    XAlpha          ....  0.666667
   Becke's b parameter  XBeta           ....  0.004200
 Correlation Functional Correlation     .... LYP
 LDA part of GGA corr.  LDAOpt          .... VWN-5
 Gradients option       PostSCFGGA      .... off
 Hybrid DFT is turned on
   Fraction HF Exchange ScalHFX         ....  0.200000
   Scaling of DF-GGA-X  ScalDFX         ....  0.720000
   Scaling of DF-GGA-C  ScalDFC         ....  0.810000
   Scaling of DF-LDA-C  ScalLDAC        ....  1.000000
   Perturbative correction              ....  0.000000
   NL short-range parameter             ....  4.800000
 RI-approximation to the Coulomb term is turned on
   Number of AuxJ basis functions       .... 142
   RIJ-COSX (HFX calculated with COS-X)).... on


General Settings:
 Integral files         IntName         .... n2h4
 Hartree-Fock type      HFTyp           .... RHF
 Total Charge           Charge          ....    0
 Multiplicity           Mult            ....    1
 Number of Electrons    NEL             ....   18
 Basis Dimension        Dim             ....   60
 Nuclear Repulsion      ENuc            ....     42.8436102162 Eh

Convergence Acceleration:
 AO-DIIS                CNVDIIS         .... on
   Start iteration      DIISMaxIt       ....    12
   Startup error        DIISStart       ....  0.200000
   # of expansion vecs  DIISMaxEq       ....     5
   Bias factor          DIISBfac        ....   1.050
   Max. coefficient     DIISMaxC        ....  10.000
 MO-DIIS                CNVKDIIS        .... off
 Trust-Rad. Augm. Hess. CNVTRAH         .... auto
   Auto Start mean grad. ratio tolernc. ....  1.125000
   Auto Start start iteration           ....    50
   Auto Start num. interpolation iter.  ....    10
   Max. Number of Micro iterations      ....    24
   Max. Number of Macro iterations      .... Maxiter - #DIIS iter
   Number of Davidson start vectors     ....     2
   Converg. threshold    (grad. norm)   ....   1.000e-05
   Grad. Scal. Fac. for Micro threshold ....   0.100
   Minimum threshold for Micro iter.    ....   1.000e-02
   NR start threshold (gradient norm)   ....   1.000e-04
   Initial trust radius                 ....   0.400
   Minimum AH scaling param. (alpha)    ....   1.000
   Maximum AH scaling param. (alpha)    .... 1000.000
   Quad. conv. algorithm                .... NR
   White noise on init. David. guess    .... on
   Maximum white noise                  ....   0.010
   Pseudo random numbers                .... off
   Inactive MOs                         .... canonical
   Orbital update algorithm             .... Taylor
   Preconditioner                       .... Diag
   Full preconditioner red. dimension   ....   250
 SOSCF                 CNVSOSCF           .... on
   Start iteration     SOSCFMaxIt         ....   150
   Startup grad/error  SOSCFStart         ....  0.003300
   Hessian update      SOSCFHessUp        .... L-BFGS
   Autom. constraints  SOSCFAutoConstrain .... off
 Level Shifting         CNVShift        .... on
   Level shift para.    LevelShift      ....    0.2500
   Turn off err/grad.   ShiftErr        ....    0.0010
 Zerner damping         CNVZerner       .... off
 Static damping         CNVDamp         .... on
   Fraction old density DampFac         ....    0.7000
   Max. Damping (<1)    DampMax         ....    0.9800
   Min. Damping (>=0)   DampMin         ....    0.0000
   Turn off err/grad.   DampErr         ....    0.1000

SCF Procedure:
 Maximum # iterations   MaxIter         ....   125
 SCF integral mode      SCFMode         .... Direct
   Integral package                     .... SHARK and LIBINT hybrid scheme
 Reset frequency        DirectResetFreq ....    20
 Integral Threshold     Thresh          ....  2.500e-11 Eh
 Primitive CutOff       TCut            ....  2.500e-12 Eh

Convergence Tolerance:
 Convergence Check Mode ConvCheckMode   .... Total+1el-Energy
 Convergence forced     ConvForced      .... 0
 Energy Change          TolE            ....  1.000e-08 Eh
 1-El. energy change                    ....  1.000e-05 Eh
 Orbital Gradient       TolG            ....  1.000e-05
 Orbital Rotation angle TolX            ....  1.000e-05
 DIIS Error             TolErr          ....  5.000e-07

------------------------------
INITIAL GUESS: MODEL POTENTIAL
------------------------------
Loading Hartree-Fock densities                     ... done
Calculating cut-offs                               ... done
Initializing the effective Hamiltonian             ... done
Setting up the integral package (SHARK)            ... done
Starting the Coulomb interaction                   ... done (   0.0 sec)
Making the grid                                    ... done (   0.0 sec)
Mapping shells                                     ... done
Starting the XC term evaluation                    ... done (   0.0 sec)
  promolecular density results
     # of electrons  =     17.997341530
     EX              =    -14.350509184
     EC              =     -0.594574393
     EX+EC           =    -14.945083577
Transforming the Hamiltonian                       ... done (   0.0 sec)
Diagonalizing the Hamiltonian                      ... done (   0.0 sec)
Back transforming the eigenvectors                 ... done (   0.0 sec)
Now organizing SCF variables                       ... done
                      ------------------
                      INITIAL GUESS DONE (   0.0 sec)
                      ------------------
             **** ENERGY FILE WAS UPDATED (n2h4.en.tmp) ****
Finished Guess after   0.4 sec
Maximum memory used throughout the entire GUESS-calculation: 6.1 MB


           ************************************************************
           *        Program running with 8 parallel MPI-processes     *
           *              working on a common directory               *
           ************************************************************

-------------------------------------------------------------------------------------------
                                      ORCA LEAN-SCF
                              memory conserving SCF solver
-------------------------------------------------------------------------------------------

----------------------------------------D-I-I-S--------------------------------------------
Iteration    Energy (Eh)           Delta-E    RMSDP     MaxDP     DIISErr   Damp  Time(sec)
-------------------------------------------------------------------------------------------
               ***  Starting incremental Fock matrix formation  ***
    1    -111.5850956833829173     0.00e+00  1.56e-02  7.64e-02  2.77e-01  0.700   0.1
    2    -111.6498077995195217    -6.47e-02  9.99e-03  4.42e-02  1.25e-01  0.700   0.1
                               ***Turning on AO-DIIS***
    3    -111.6738402064243871    -2.40e-02  3.09e-03  1.28e-02  4.34e-02  0.700   0.1
    4    -111.6880760060110447    -1.42e-02  4.22e-03  1.43e-02  2.09e-02  0.000   0.1
    5    -111.7197656588250538    -3.17e-02  9.37e-04  3.63e-03  7.39e-03  0.000   0.1
                              *** Initializing SOSCF ***
---------------------------------------S-O-S-C-F--------------------------------------
Iteration    Energy (Eh)           Delta-E    RMSDP     MaxDP     MaxGrad    Time(sec)
--------------------------------------------------------------------------------------
    6    -111.7198931001679512    -1.27e-04  2.87e-04  7.06e-04  1.51e-03     0.1
               *** Restarting incremental Fock matrix formation ***
    7    -111.7198409371421235     5.22e-05  1.84e-04  4.31e-04  2.74e-04     0.1
    8    -111.7198408486186452     8.85e-08  8.03e-05  4.37e-04  4.02e-04     0.1
    9    -111.7198418791124368    -1.03e-06  3.61e-05  1.06e-04  5.07e-05     0.1
   10    -111.7198418892179177    -1.01e-08  1.38e-05  5.95e-05  3.84e-05     0.1
   11    -111.7198419086918477    -1.95e-08  4.67e-06  1.89e-05  6.44e-06     0.1
   12    -111.7198419092885331    -5.97e-10  1.72e-06  5.96e-06  4.15e-06     0.1
                 **** Energy Check signals convergence ****

               *****************************************************
               *                     SUCCESS                       *
               *           SCF CONVERGED AFTER  12 CYCLES          *
               *****************************************************

Recomputing exchange energy using gridx3       ... done (    0.072 sec)
Old exchange energy                            :     -2.931626035 Eh
New exchange energy                            :     -2.931646712 Eh
Exchange energy change after final integration :     -0.000020677 Eh
Total energy after final integration           :   -111.719862587 Eh
             **** ENERGY FILE WAS UPDATED (n2h4.en.tmp) ****

----------------
TOTAL SCF ENERGY
----------------

Total Energy       :       -111.71986258689083 Eh           -3040.05201 eV

Components:
Nuclear Repulsion  :         42.84361021617008 Eh            1165.83390 eV
Electronic Energy  :       -154.56345212575542 Eh           -4205.88536 eV
One Electron Energy:       -235.71583182650471 Eh           -6414.15387 eV
Two Electron Energy:         81.15237970074928 Eh            2208.26852 eV

Virial components:
Potential Energy   :       -223.60622601472392 Eh           -6084.63475 eV
Kinetic Energy     :        111.88636342783309 Eh            3044.58273 eV
Virial Ratio       :          1.99851187547936

DFT components:
N(Alpha)           :        9.000028126661 electrons
N(Beta)            :        9.000028126661 electrons
N(Total)           :       18.000056253322 electrons
E(X)               :      -11.672742374717 Eh       
E(C)               :       -0.707535479584 Eh       
E(XC)              :      -12.380277854300 Eh       

---------------
SCF CONVERGENCE
---------------

  Last Energy change         ...    5.9669e-10  Tolerance :   1.0000e-08
  Last MAX-Density change    ...    5.9615e-06  Tolerance :   1.0000e-07
  Last RMS-Density change    ...    1.7205e-06  Tolerance :   5.0000e-09
  Last DIIS Error            ...    1.5126e-03  Tolerance :   5.0000e-07
  Last Orbital Gradient      ...    4.1452e-06  Tolerance :   1.0000e-05
  Last Orbital Rotation      ...    6.2048e-06  Tolerance :   1.0000e-05


----------------
ORBITAL ENERGIES
----------------

  NO   OCC          E(Eh)            E(eV) 
   0   2.0000     -14.319256      -389.6468 
   1   2.0000     -14.292869      -388.9287 
   2   2.0000      -1.004150       -27.3243 
   3   2.0000      -0.726444       -19.7675 
   4   2.0000      -0.527204       -14.3460 
   5   2.0000      -0.511315       -13.9136 
   6   2.0000      -0.386591       -10.5197 
   7   2.0000      -0.263196        -7.1619 
   8   2.0000      -0.235829        -6.4172 
   9   0.0000       0.016670         0.4536 
  10   0.0000       0.084459         2.2982 
  11   0.0000       0.098252         2.6736 
  12   0.0000       0.125278         3.4090 
  13   0.0000       0.170757         4.6465 
  14   0.0000       0.309010         8.4086 
  15   0.0000       0.391651        10.6574 
  16   0.0000       0.404328        11.0023 
  17   0.0000       0.429737        11.6937 
  18   0.0000       0.588265        16.0075 
  19   0.0000       0.621509        16.9121 
*Only the first 10 virtual orbitals were printed.

                    ********************************
                    * MULLIKEN POPULATION ANALYSIS *
                    ********************************

-----------------------
MULLIKEN ATOMIC CHARGES
-----------------------
   0 N :   -0.431327
   1 N :   -0.352596
   2 H :    0.177231
   3 H :    0.216046
   4 H :    0.216937
   5 H :    0.173710
Sum of atomic charges:   -0.0000000

--------------------------------
MULLIKEN REDUCED ORBITAL CHARGES
--------------------------------
  0 N s       :     3.546529  s :     3.546529
      pz      :     1.139543  p :     3.845568
      px      :     1.006821
      py      :     1.699203
      dz2     :     0.004549  d :     0.039231
      dxz     :     0.010208
      dyz     :     0.008881
      dx2y2   :     0.007226
      dxy     :     0.008366

  1 N s       :     3.717454  s :     3.717454
      pz      :     1.545391  p :     3.595945
      px      :     0.920581
      py      :     1.129973
      dz2     :     0.004348  d :     0.039197
      dxz     :     0.005865
      dyz     :     0.007622
      dx2y2   :     0.012611
      dxy     :     0.008751

  2 H s       :     0.780072  s :     0.780072
      pz      :     0.015738  p :     0.042698
      px      :     0.010669
      py      :     0.016291

  3 H s       :     0.745365  s :     0.745365
      pz      :     0.015533  p :     0.038590
      px      :     0.008061
      py      :     0.014996

  4 H s       :     0.721586  s :     0.721586
      pz      :     0.015771  p :     0.061476
      px      :     0.025758
      py      :     0.019947

  5 H s       :     0.762601  s :     0.762601
      pz      :     0.016677  p :     0.063690
      px      :     0.026731
      py      :     0.020281



                     *******************************
                     * LOEWDIN POPULATION ANALYSIS *
                     *******************************

----------------------
LOEWDIN ATOMIC CHARGES
----------------------
   0 N :    0.035165
   1 N :   -0.069384
   2 H :    0.009392
   3 H :    0.012947
   4 H :    0.008168
   5 H :    0.003711

-------------------------------
LOEWDIN REDUCED ORBITAL CHARGES
-------------------------------
  0 N s       :     3.078752  s :     3.078752
      pz      :     1.142081  p :     3.813574
      px      :     1.049839
      py      :     1.621653
      dz2     :     0.007836  d :     0.072509
      dxz     :     0.022623
      dyz     :     0.013106
      dx2y2   :     0.012467
      dxy     :     0.016478

  1 N s       :     3.209150  s :     3.209150
      pz      :     1.544276  p :     3.801222
      px      :     1.088641
      py      :     1.168305
      dz2     :     0.006352  d :     0.059012
      dxz     :     0.006864
      dyz     :     0.010914
      dx2y2   :     0.021056
      dxy     :     0.013825

  2 H s       :     0.857859  s :     0.857859
      pz      :     0.051051  p :     0.132749
      px      :     0.027973
      py      :     0.053725

  3 H s       :     0.854497  s :     0.854497
      pz      :     0.052787  p :     0.132555
      px      :     0.028352
      py      :     0.051417

  4 H s       :     0.802139  s :     0.802139
      pz      :     0.047724  p :     0.189692
      px      :     0.087581
      py      :     0.054388

  5 H s       :     0.806654  s :     0.806654
      pz      :     0.048337  p :     0.189635
      px      :     0.088366
      py      :     0.052933



                      *****************************
                      * MAYER POPULATION ANALYSIS *
                      *****************************

  NA   - Mulliken gross atomic population
  ZA   - Total nuclear charge
  QA   - Mulliken gross atomic charge
  VA   - Mayer's total valence
  BVA  - Mayer's bonded valence
  FA   - Mayer's free valence

  ATOM       NA         ZA         QA         VA         BVA        FA
  0 N      7.4313     7.0000    -0.4313     2.7985     2.7985    -0.0000
  1 N      7.3526     7.0000    -0.3526     2.6982     2.6982     0.0000
  2 H      0.8228     1.0000     0.1772     0.9638     0.9638    -0.0000
  3 H      0.7840     1.0000     0.2160     0.9554     0.9554    -0.0000
  4 H      0.7831     1.0000     0.2169     1.0181     1.0181     0.0000
  5 H      0.8263     1.0000     0.1737     1.0225     1.0225    -0.0000

  Mayer bond orders larger than 0.100000
B(  0-N ,  1-N ) :   0.7848 B(  0-N ,  2-H ) :   0.9533 B(  0-N ,  3-H ) :   0.9262 
B(  1-N ,  4-H ) :   0.9281 B(  1-N ,  5-H ) :   0.9466 

-------
TIMINGS
-------

Total SCF time: 0 days 0 hours 0 min 1 sec 

Total time                  ....       1.503 sec
Sum of individual times     ....       1.371 sec  ( 91.2%)

SCF preparation             ....       0.402 sec  ( 26.8%)
Fock matrix formation       ....       0.864 sec  ( 57.5%)
  Startup                   ....       0.002 sec  (  0.3% of F)
  Split-RI-J                ....       0.056 sec  (  6.5% of F)
  Chain of spheres X        ....       0.584 sec  ( 67.6% of F)
  XC integration            ....       0.231 sec  ( 26.8% of F)
    XC Preparation          ....       0.000 sec  (  0.0% of XC)
    Basis function eval.    ....       0.062 sec  ( 26.6% of XC)
    Density eval.           ....       0.026 sec  ( 11.1% of XC)
    XC-Functional eval.     ....       0.015 sec  (  6.6% of XC)
    XC-Potential eval.      ....       0.024 sec  ( 10.5% of XC)
Diagonalization             ....       0.000 sec  (  0.0%)
Density matrix formation    ....       0.014 sec  (  0.9%)
Total Energy calculation    ....       0.009 sec  (  0.6%)
Population analysis         ....       0.006 sec  (  0.4%)
Orbital Transformation      ....       0.013 sec  (  0.9%)
Orbital Orthonormalization  ....       0.000 sec  (  0.0%)
DIIS solution               ....       0.034 sec  (  2.2%)
SOSCF solution              ....       0.028 sec  (  1.9%)
Finished LeanSCF after   1.5 sec

Maximum memory used throughout the entire LEANSCF-calculation: 6.2 MB

-------------------------   --------------------
FINAL SINGLE POINT ENERGY      -111.719862586891
-------------------------   --------------------



           ************************************************************
           *        Program running with 8 parallel MPI-processes     *
           *              working on a common directory               *
           ************************************************************
------------------------------------------------------------------------------
                         ORCA SCF GRADIENT CALCULATION
------------------------------------------------------------------------------

Nuc. rep. gradient        (SHARK) ... done (  0.0 sec)
HCore & Overlap gradient  (SHARK) ... done (  0.0 sec)
Split-RIJ-J gradient      (SHARK) ... done (  0.1 sec)
done (  0.3 sec)
XC gradient                       ... done (  0.1 sec)

------------------
CARTESIAN GRADIENT
------------------

   1   N   :    0.139525950    0.000470854    0.064475905
   2   N   :    0.002410845   -0.004685720   -0.002302197
   3   H   :    0.011323275    0.001521407    0.004024889
   4   H   :    0.008192184    0.000091968   -0.002074679
   5   H   :   -0.072392592    0.017629249   -0.032960285
   6   H   :   -0.089059661   -0.015027758   -0.031163634

Difference to translation invariance:
           :    0.0000000000   -0.0000000000   -0.0000000000

Difference to rotation invariance:
           :   -0.0000142580    0.0000229406   -0.0000532761

Norm of the Cartesian gradient     ...    0.1991044085
RMS gradient                       ...    0.0469293591
MAX gradient                       ...    0.1395259499

-------
TIMINGS
-------

Total SCF gradient time     ....        0.462 sec

Densities                   ....       0.000 sec  (  0.0%)
One electron gradient       ....       0.007 sec  (  1.5%)
RI-J Coulomb gradient       ....       0.062 sec  ( 13.4%)
COSX gradient               ....       0.326 sec  ( 70.6%)
XC gradient                 ....       0.067 sec  ( 14.4%)

Maximum memory used throughout the entire SCFGRAD-calculation: 8.1 MB
------------------------------------------------------------------------------
                         ORCA GEOMETRY RELAXATION STEP
------------------------------------------------------------------------------

Reading the OPT-File                    .... done
Getting information on internals        .... done
Copying old internal coords+grads       .... done
Making the new internal coordinates     .... (2022 redundants) done
Validating the new internal coordinates .... (2022 redundants) done
Calculating the B-matrix                .... done
Calculating the G,G- and P matrices     .... done
Transforming gradient to internals      .... done
Projecting the internal gradient        .... done
Number of atoms                         ....   6
Number of internal coordinates          ....  15
Current Energy                          ....  -111.719862587 Eh
Current gradient norm                   ....     0.199104409 Eh/bohr
Maximum allowed component of the step   ....  0.300
Current trust radius                    ....  0.300
Evaluating the initial hessian          ....  (Almloef) done
Projecting the Hessian                  .... done
Forming the augmented Hessian           .... done
Diagonalizing the augmented Hessian     .... done
Last element of RFO vector              ....  0.849760193
Lowest eigenvalues of augmented Hessian:
 -0.161798422  0.014533689  0.103089197  0.126231480  0.319505664
Length of the computed step             ....  0.620374362
Warning: the length of the step is outside the trust region - taking restricted step instead
The input lambda is                     ....     0.013534
   iter:   5  x=   -0.473425  g=    0.699319 f(x)=     0.109624
   iter:  10  x=   -0.602693  g=    0.203751 f(x)=     0.000000
The output lambda is                    ....    -0.602693 (11 iterations)
The final length of the internal step   ....  0.300000000
Converting the step to Cartesian space:
 Initial RMS(Int)=    0.0774596669
Transforming coordinates:
 Iter   0:  RMS(Cart)=    0.1228762523 RMS(Int)=    0.0758726785
 Iter   5:  RMS(Cart)=    0.0000055092 RMS(Int)=    0.0000043422
done
Storing new coordinates                 .... done

                                .--------------------.
          ----------------------|Geometry convergence|-------------------------
          Item                value                   Tolerance       Converged
          ---------------------------------------------------------------------
          RMS gradient        0.0700322841            0.0001000000      NO
          MAX gradient        0.1590400027            0.0003000000      NO
          RMS step            0.0774596669            0.0020000000      NO
          MAX step            0.1660036834            0.0040000000      NO
          -------------------------------------------------------------------------
          ........................................................
          Max(Bonds)      0.0840      Max(Angles)    9.51
          Max(Dihed)        3.77      Max(Improp)    0.00
          ---------------------------------------------------------------------

The optimization has not yet converged - more geometry cycles are needed


    ---------------------------------------------------------------------------
                         Redundant Internal Coordinates
                            (Angstroem and degrees)

        Definition                    Value    dE/dq     Step     New-Value
    ----------------------------------------------------------------------------
     1. B(N   1,N   0)                1.4520 -0.159040  0.0840    1.5360   
     2. B(H   2,N   0)                1.0191  0.000108 -0.0001    1.0190   
     3. B(H   3,N   0)                1.0191 -0.001074  0.0006    1.0196   
     4. B(H   4,N   1)                1.0191 -0.005046  0.0026    1.0217   
     5. B(H   5,N   1)                1.0191  0.003633 -0.0019    1.0172   
     6. A(H   2,N   0,H   3)          108.88  0.009784   -0.55    108.33   
     7. A(N   1,N   0,H   2)          110.03 -0.018288    1.16    111.19   
     8. A(N   1,N   0,H   3)          110.03 -0.011051    0.72    110.74   
     9. A(H   4,N   1,H   5)          108.88 -0.064694    3.15    112.03   
    10. A(N   0,N   1,H   5)           69.97 -0.147019    9.51     79.48   
    11. A(N   0,N   1,H   4)           69.97 -0.118928    7.78     77.76   
    12. D(H   4,N   1,N   0,H   3)   -150.04  0.040781   -3.26   -153.30   
    13. D(H   5,N   1,N   0,H   2)    -29.96 -0.040548    3.24    -26.72   
    14. D(H   5,N   1,N   0,H   3)     90.00 -0.046952    3.75     93.75   
    15. D(H   4,N   1,N   0,H   2)     90.00  0.047184   -3.77     86.23   
    ----------------------------------------------------------------------------

Geometry step timings:
Preparation and reading OPT file:      0.000 s ( 3.820 %)
Internal coordinates            :      0.000 s ( 4.366 %)
B/P matrices and projection     :      0.000 s (18.281 %)
Hessian update/contruction      :      0.000 s (14.734 %)
Making the step                 :      0.000 s (19.372 %)
Converting the step to Cartesian:      0.000 s ( 6.548 %)
Storing new data                :      0.000 s ( 3.820 %)
Checking convergence            :      0.000 s ( 6.821 %)
Final printing                  :      0.000 s (22.101 %)
Total time                      :      0.001 s

Time for energy+gradient        :      4.241 s
Time for complete geometry iter :      4.774 s

         *************************************************************
         *                GEOMETRY OPTIMIZATION CYCLE   2            *
         *************************************************************
---------------------------------
CARTESIAN COORDINATES (ANGSTROEM)
---------------------------------
  N     -0.089820    0.011802   -0.029174
  N      1.445929   -0.011082   -0.012618
  H     -0.459948    0.483657    0.794674
  H     -0.434781    0.495694   -0.857708
  H      1.221356   -0.849957    0.525597
  H      1.277264    0.827887    0.537229

----------------------------
CARTESIAN COORDINATES (A.U.)
----------------------------
  NO LB      ZA    FRAG     MASS         X           Y           Z
   0 N     7.0000    0    14.007   -0.169734    0.022302   -0.055132
   1 N     7.0000    0    14.007    2.732411   -0.020943   -0.023844
   2 H     1.0000    0     1.008   -0.869177    0.913979    1.501717
   3 H     1.0000    0     1.008   -0.821617    0.936725   -1.620834
   4 H     1.0000    0     1.008    2.308028   -1.606186    0.993234
   5 H     1.0000    0     1.008    2.413679    1.564480    1.015216

--------------------------------
INTERNAL COORDINATES (ANGSTROEM)
--------------------------------
 N      0   0   0     0.000000000000     0.00000000     0.00000000
 N      1   0   0     1.536008697042     0.00000000     0.00000000
 H      1   2   0     1.019003929223   111.18305315     0.00000000
 H      1   2   3     1.019616601554   110.73812994   120.47662011
 H      2   1   3     1.021674688238    78.35420830    86.69806040
 H      2   1   3     1.017177166895    80.08128965   332.80369100

---------------------------
INTERNAL COORDINATES (A.U.)
---------------------------
 N      0   0   0     0.000000000000     0.00000000     0.00000000
 N      1   0   0     2.902635776730     0.00000000     0.00000000
 H      1   2   0     1.925638355621   111.18305315     0.00000000
 H      1   2   3     1.926796138537   110.73812994   120.47662011
 H      2   1   3     1.930685358730    78.35420830    86.69806040
 H      2   1   3     1.922186275109    80.08128965   332.80369100



           ************************************************************
           *        Program running with 8 parallel MPI-processes     *
           *              working on a common directory               *
           ************************************************************
------------------------------------------------------------------------------
                   ___                                                        
                  /   \      - P O W E R E D   B Y -                         
                 /     \                                                     
                 |  |  |   _    _      __       _____    __    __             
                 |  |  |  | |  | |    /  \     |  _  \  |  |  /  |          
                  \  \/   | |  | |   /    \    | | | |  |  | /  /          
                 / \  \   | |__| |  /  /\  \   | |_| |  |  |/  /          
                |  |  |   |  __  | /  /__\  \  |    /   |      \           
                |  |  |   | |  | | |   __   |  |    \   |  |\   \          
                \     /   | |  | | |  |  |  |  | |\  \  |  | \   \       
                 \___/    |_|  |_| |__|  |__|  |_| \__\ |__|  \__/        
                                                                              
                      - O R C A' S   B I G   F R I E N D -                    
                                      &                                       
                       - I N T E G R A L  F E E D E R -                       
                                                                              
 v1 FN, 2020, v2 2021, v3 2022-2024                                           
------------------------------------------------------------------------------


----------------------
SHARK INTEGRAL PACKAGE
----------------------

Number of atoms                             ...      6
Number of basis functions                   ...     60
Number of shells                            ...     32
Maximum angular momentum                    ...      2
Integral batch strategy                     ... SHARK/LIBINT Hybrid
RI-J (if used) integral strategy            ... SPLIT-RIJ (Revised 2003 algorithm where possible)
Printlevel                                  ...      1
Contraction scheme used                     ... SEGMENTED contraction
Prescreening option                         ... SCHWARTZ
   Thresh                                   ... 2.500e-11
   Tcut                                     ... 2.500e-12
   Tpresel                                  ... 2.500e-12 
Coulomb Range Separation                    ... NOT USED
Exchange Range Separation                   ... NOT USED
Multipole approximations                    ... NOT USED
Finite Nucleus Model                        ... NOT USED
CABS basis                                  ... NOT available
Auxiliary Coulomb fitting basis             ... AVAILABLE
   # of basis functions in Aux-J            ...    142
   # of shells in Aux-J                     ...     50
   Maximum angular momentum in Aux-J        ...      4
Auxiliary J/K fitting basis                 ... NOT available
Auxiliary Correlation fitting basis         ... NOT available
Auxiliary 'external' fitting basis          ... NOT available

Checking pre-screening integrals            ... done (  0.0 sec) Dimension = 32
   => SHARK Basis and OBASIS are compatible. Storing Pre-screening
Shell pair information
Shell pair cut-off parameter TPreSel        ...   2.5e-12
Total number of shell pairs                 ...       528
Shell pairs after pre-screening             ...       528
Total number of primitive shell pairs       ...      1765
Primitive shell pairs kept                  ...      1558
          la=0 lb=0:    210 shell pairs
          la=1 lb=0:    200 shell pairs
          la=1 lb=1:     55 shell pairs
          la=2 lb=0:     40 shell pairs
          la=2 lb=1:     20 shell pairs
          la=2 lb=2:      3 shell pairs

Checking whether 4 symmetric matrices of dimension 60 fit in memory
:Max Core in MB      =   4096.00
 MB in use           =      3.89
 MB left             =   4092.11
 MB needed           =      0.06
 Data fit in memory  = YES
Calculating RI/J V-Matrix + Cholesky decomp.... done (  0.0 sec)
Calculating Nuclear repulsion               ... done (  0.0 sec) ENN=     40.940595855163 Eh

Diagonalization of the overlap matrix:
Smallest eigenvalue                        ... 7.428e-03
Time for diagonalization                   ...    0.000 sec
Threshold for overlap eigenvalues          ... 1.000e-07
Number of eigenvalues below threshold      ... 0
Time for construction of square roots      ...    0.000 sec
Total time needed                          ...    0.001 sec

-------------------
DFT GRID GENERATION
-------------------

General Integration Accuracy     IntAcc      ... 4.388
Radial Grid Type                 RadialGrid  ... OptM3 with GC (2021)
Angular Grid (max. ang.)         AngularGrid ... 4 (Lebedev-302)
Angular grid pruning method      GridPruning ... 4 (adaptive)
Weight generation scheme         WeightScheme... mBecke (2022)
Basis function cutoff            BFCut       ... 1.0000e-11
Integration weight cutoff        WCut        ... 1.0000e-14
Partially contracted basis set               ... off
Rotationally invariant grid construction     ... off
Angular grids for H and He will be reduced by one unit

Total number of grid points                  ...    25293
Total number of batches                      ...      397
Average number of points per batch           ...       63
Average number of grid points per atom       ...     4216

--------------------
COSX GRID GENERATION
--------------------

GRIDX 1
-------
General Integration Accuracy     IntAcc      ... 3.816
Radial Grid Type                 RadialGrid  ... OptM3 with GC (2021)
Angular Grid (max. ang.)         AngularGrid ... 1 (Lebedev-50)
Angular grid pruning method      GridPruning ... 4 (adaptive)
Weight generation scheme         WeightScheme... mBecke (2022)
Basis function cutoff            BFCut       ... 1.0000e-11
Integration weight cutoff        WCut        ... 1.0000e-14
Partially contracted basis set               ... on
Rotationally invariant grid construction     ... off
Angular grids for H and He will be reduced by one unit

Total number of grid points                  ...     3277
Total number of batches                      ...       29
Average number of points per batch           ...      113
Average number of grid points per atom       ...      546
UseSFitting                                  ... on

GRIDX 2
-------
General Integration Accuracy     IntAcc      ... 4.020
Radial Grid Type                 RadialGrid  ... OptM3 with GC (2021)
Angular Grid (max. ang.)         AngularGrid ... 2 (Lebedev-110)
Angular grid pruning method      GridPruning ... 4 (adaptive)
Weight generation scheme         WeightScheme... mBecke (2022)
Basis function cutoff            BFCut       ... 1.0000e-11
Integration weight cutoff        WCut        ... 1.0000e-14
Partially contracted basis set               ... on
Rotationally invariant grid construction     ... off
Angular grids for H and He will be reduced by one unit

Total number of grid points                  ...     6909
Total number of batches                      ...       57
Average number of points per batch           ...      121
Average number of grid points per atom       ...     1152
UseSFitting                                  ... on

GRIDX 3
-------
General Integration Accuracy     IntAcc      ... 4.338
Radial Grid Type                 RadialGrid  ... OptM3 with GC (2021)
Angular Grid (max. ang.)         AngularGrid ... 3 (Lebedev-194)
Angular grid pruning method      GridPruning ... 4 (adaptive)
Weight generation scheme         WeightScheme... mBecke (2022)
Basis function cutoff            BFCut       ... 1.0000e-11
Integration weight cutoff        WCut        ... 1.0000e-14
Partially contracted basis set               ... on
Rotationally invariant grid construction     ... off
Angular grids for H and He will be reduced by one unit

Total number of grid points                  ...    15218
Total number of batches                      ...      124
Average number of points per batch           ...      122
Average number of grid points per atom       ...     2536
UseSFitting                                  ... on
Grids setup in   0.2 sec
Initializing property integral containers    ... done (  0.0 sec)

SHARK setup successfully completed in   0.2 seconds

Maximum memory used throughout the entire STARTUP-calculation: 9.7 MB


           ************************************************************
           *        Program running with 8 parallel MPI-processes     *
           *              working on a common directory               *
           ************************************************************
Occupation numbers will be reassigned to an Aufbau configuration
             **** ENERGY FILE WAS UPDATED (n2h4.en.tmp) ****
Finished Guess after   0.4 sec
Maximum memory used throughout the entire GUESS-calculation: 6.1 MB


           ************************************************************
           *        Program running with 8 parallel MPI-processes     *
           *              working on a common directory               *
           ************************************************************
----------------------------------------D-I-I-S--------------------------------------------
Iteration    Energy (Eh)           Delta-E    RMSDP     MaxDP     DIISErr   Damp  Time(sec)
-------------------------------------------------------------------------------------------
               ***  Starting incremental Fock matrix formation  ***
    1    -111.7711230969581493     0.00e+00  2.76e-03  1.69e-02  5.39e-02  0.700   0.1
    2    -111.7742512351521214    -3.13e-03  2.42e-03  1.32e-02  4.09e-02  0.700   0.1
                               ***Turning on AO-DIIS***
    3    -111.7765077847463999    -2.26e-03  1.88e-03  7.97e-03  2.99e-02  0.700   0.1
    4    -111.7781067414974814    -1.60e-03  4.85e-03  2.29e-02  2.11e-02  0.000   0.1
                              *** Initializing SOSCF ***
---------------------------------------S-O-S-C-F--------------------------------------
Iteration    Energy (Eh)           Delta-E    RMSDP     MaxDP     MaxGrad    Time(sec)
--------------------------------------------------------------------------------------
    5    -111.7820849377468164    -3.98e-03  3.91e-04  1.36e-03  3.16e-03     0.1
               *** Restarting incremental Fock matrix formation ***
    6    -111.7820913384624362    -6.40e-06  3.16e-04  1.42e-03  5.27e-04     0.1
    7    -111.7820868501488292     4.49e-06  1.73e-04  6.88e-04  1.03e-03     0.1
    8    -111.7820942854408770    -7.44e-06  1.29e-05  6.40e-05  1.43e-05     0.1
    9    -111.7820942915420233    -6.10e-09  4.65e-06  1.94e-05  8.90e-06     0.1
                 **** Energy Check signals convergence ****

               *****************************************************
               *                     SUCCESS                       *
               *           SCF CONVERGED AFTER   9 CYCLES          *
               *****************************************************

Recomputing exchange energy using gridx3       ... done (    0.075 sec)
Old exchange energy                            :     -2.920753987 Eh
New exchange energy                            :     -2.920757848 Eh
Exchange energy change after final integration :     -0.000003861 Eh
Total energy after final integration           :   -111.782098154 Eh
             **** ENERGY FILE WAS UPDATED (n2h4.en.tmp) ****

----------------
TOTAL SCF ENERGY
----------------

Total Energy       :       -111.78209815447622 Eh           -3041.74553 eV

Components:
Nuclear Repulsion  :         40.94059585516261 Eh            1114.05025 eV
Electronic Energy  :       -152.72269014849286 Eh           -4155.79568 eV
One Electron Energy:       -232.17323325944443 Eh           -6317.75487 eV
Two Electron Energy:         79.45054311095159 Eh            2161.95919 eV

Virial components:
Potential Energy   :       -223.39939586193969 Eh           -6079.00661 eV
Kinetic Energy     :        111.61729770746348 Eh            3037.26108 eV
Virial Ratio       :          2.00147647766428

DFT components:
N(Alpha)           :        8.999994896897 electrons
N(Beta)            :        8.999994896897 electrons
N(Total)           :       17.999989793794 electrons
E(X)               :      -11.630755816310 Eh       
E(C)               :       -0.703071478212 Eh       
E(XC)              :      -12.333827294522 Eh       

---------------
SCF CONVERGENCE
---------------

  Last Energy change         ...    6.1011e-09  Tolerance :   1.0000e-08
  Last MAX-Density change    ...    1.9352e-05  Tolerance :   1.0000e-07
  Last RMS-Density change    ...    4.6479e-06  Tolerance :   5.0000e-09
  Last DIIS Error            ...    3.1558e-03  Tolerance :   5.0000e-07
  Last Orbital Gradient      ...    8.8960e-06  Tolerance :   1.0000e-05
  Last Orbital Rotation      ...    1.0860e-05  Tolerance :   1.0000e-05


Total SCF time: 0 days 0 hours 0 min 1 sec 
Finished LeanSCF after   1.3 sec

Maximum memory used throughout the entire LEANSCF-calculation: 6.3 MB

-------------------------   --------------------
FINAL SINGLE POINT ENERGY      -111.782098154476
-------------------------   --------------------



           ************************************************************
           *        Program running with 8 parallel MPI-processes     *
           *              working on a common directory               *
           ************************************************************
------------------------------------------------------------------------------
                         ORCA SCF GRADIENT CALCULATION
------------------------------------------------------------------------------

Nuc. rep. gradient        (SHARK) ... done (  0.0 sec)
HCore & Overlap gradient  (SHARK) ... done (  0.0 sec)
Split-RIJ-J gradient      (SHARK) ... done (  0.1 sec)
done (  0.3 sec)
XC gradient                       ... done (  0.1 sec)

------------------
CARTESIAN GRADIENT
------------------

   1   N   :    0.045975724    0.005711808    0.041794186
   2   N   :    0.062724080   -0.006249316   -0.006448108
   3   H   :   -0.002214350   -0.001558748    0.003117685
   4   H   :   -0.002093233    0.000429216   -0.002962261
   5   H   :   -0.048778587   -0.000546172   -0.016690475
   6   H   :   -0.055613634    0.002213212   -0.018811026

Difference to translation invariance:
           :    0.0000000000   -0.0000000000   -0.0000000000

Difference to rotation invariance:
           :    0.0000183225    0.0000433936   -0.0000297870

Norm of the Cartesian gradient     ...    0.1185256603
RMS gradient                       ...    0.0279367661
MAX gradient                       ...    0.0627240803

-------
TIMINGS
-------

Total SCF gradient time     ....        0.453 sec

Densities                   ....       0.000 sec  (  0.0%)
One electron gradient       ....       0.007 sec  (  1.6%)
RI-J Coulomb gradient       ....       0.061 sec  ( 13.4%)
COSX gradient               ....       0.321 sec  ( 70.9%)
XC gradient                 ....       0.063 sec  ( 13.9%)

Maximum memory used throughout the entire SCFGRAD-calculation: 8.0 MB
------------------------------------------------------------------------------
                         ORCA GEOMETRY RELAXATION STEP
------------------------------------------------------------------------------

Reading the OPT-File                    .... done
Getting information on internals        .... done
Copying old internal coords+grads       .... done
Making the new internal coordinates     .... (2022 redundants) done
Validating the new internal coordinates .... (2022 redundants) done
Calculating the B-matrix                .... done
Calculating the G,G- and P matrices     .... done
Transforming gradient to internals      .... done
Projecting the internal gradient        .... done
Number of atoms                         ....   6
Number of internal coordinates          ....  15
Current Energy                          ....  -111.782098154 Eh
Current gradient norm                   ....     0.118525660 Eh/bohr
Maximum allowed component of the step   ....  0.300
Current trust radius                    ....  0.300
Updating the Hessian (BFGS)             .... done
Forming the augmented Hessian           .... done
Diagonalizing the augmented Hessian     .... done
Last element of RFO vector              ....  0.892075758
Lowest eigenvalues of augmented Hessian:
 -0.070767686  0.014654866  0.104368562  0.124011765  0.305175940
Length of the computed step             ....  0.506555490
Warning: the length of the step is outside the trust region - taking restricted step instead
The input lambda is                     ....     0.013531
   iter:   5  x=    0.000591  g=  116.281217 f(x)=     0.862056
   iter:  10  x=   -0.248714  g=    0.448192 f(x)=     0.008253
The output lambda is                    ....    -0.250028 (14 iterations)
The final length of the internal step   ....  0.300000000
Converting the step to Cartesian space:
 Initial RMS(Int)=    0.0774596669
Transforming coordinates:
 Iter   0:  RMS(Cart)=    0.1055749692 RMS(Int)=    0.0774114163
 Iter   5:  RMS(Cart)=    0.0000130626 RMS(Int)=    0.0000145238
done
Storing new coordinates                 .... done
The predicted energy change is          ....    -0.033162895
Previously predicted energy change      ....    -0.067523999
Actually observed energy change         ....    -0.062235568
Ratio of predicted to observed change   ....     0.921680709
New trust radius                        ....     0.450000000

                                .--------------------.
          ----------------------|Geometry convergence|-------------------------
          Item                value                   Tolerance       Converged
          ---------------------------------------------------------------------
          Energy change      -0.0622355676            0.0000050000      NO
          RMS gradient        0.0392818611            0.0001000000      NO
          MAX gradient        0.1045414766            0.0003000000      NO
          RMS step            0.0774596669            0.0020000000      NO
          MAX step            0.1916042527            0.0040000000      NO
          -------------------------------------------------------------------------
          ........................................................
          Max(Bonds)      0.0163      Max(Angles)   10.98
          Max(Dihed)        5.04      Max(Improp)    0.00
          ---------------------------------------------------------------------

The optimization has not yet converged - more geometry cycles are needed


    ---------------------------------------------------------------------------
                         Redundant Internal Coordinates
                            (Angstroem and degrees)

        Definition                    Value    dE/dq     Step     New-Value
    ----------------------------------------------------------------------------
     1. B(N   1,N   0)                1.5360 -0.042046  0.0163    1.5523   
     2. B(H   2,N   0)                1.0190  0.002600 -0.0033    1.0157   
     3. B(H   3,N   0)                1.0196  0.003319 -0.0045    1.0151   
     4. B(H   4,N   1)                1.0217  0.002378 -0.0042    1.0174   
     5. B(H   5,N   1)                1.0172  0.000882 -0.0003    1.0169   
     6. A(H   2,N   0,H   3)          108.32  0.000235   -0.06    108.26   
     7. A(N   1,N   0,H   2)          111.18  0.002645   -1.23    109.95   
     8. A(N   1,N   0,H   3)          110.74  0.002088   -0.89    109.84   
     9. A(H   4,N   1,H   5)          110.86 -0.014451    1.99    112.85   
    10. A(N   0,N   1,H   5)           80.08 -0.104541   10.98     91.06   
    11. A(N   0,N   1,H   4)           78.35 -0.091675    9.85     88.21   
    12. D(H   4,N   1,N   0,H   3)   -152.83  0.022061   -4.44   -157.27   
    13. D(H   5,N   1,N   0,H   2)    -27.20 -0.023665    5.04    -22.16   
    14. D(H   5,N   1,N   0,H   3)     93.28 -0.020199    3.65     96.94   
    15. D(H   4,N   1,N   0,H   2)     86.70  0.018594   -3.06     83.64   
    ----------------------------------------------------------------------------

Geometry step timings:
Preparation and reading OPT file:      0.000 s ( 2.823 %)
Internal coordinates            :      0.000 s ( 4.435 %)
B/P matrices and projection     :      0.000 s (17.204 %)
Hessian update/contruction      :      0.000 s (20.833 %)
Making the step                 :      0.000 s (14.919 %)
Converting the step to Cartesian:      0.000 s ( 5.914 %)
Storing new data                :      0.000 s ( 3.495 %)
Checking convergence            :      0.000 s ( 7.930 %)
Final printing                  :      0.000 s (22.446 %)
Total time                      :      0.001 s

Time for energy+gradient        :      3.913 s
Time for complete geometry iter :      4.444 s

         *************************************************************
         *                GEOMETRY OPTIMIZATION CYCLE   3            *
         *************************************************************
---------------------------------
CARTESIAN COORDINATES (ANGSTROEM)
---------------------------------
  N     -0.168508    0.012186   -0.055241
  N      1.383117   -0.012946   -0.015393
  H     -0.528657    0.493612    0.763365
  H     -0.484106    0.509777   -0.881795
  H      1.340058   -0.850554    0.560551
  H      1.418096    0.805925    0.586513

----------------------------
CARTESIAN COORDINATES (A.U.)
----------------------------
  NO LB      ZA    FRAG     MASS         X           Y           Z
   0 N     7.0000    0    14.007   -0.318435    0.023029   -0.104390
   1 N     7.0000    0    14.007    2.613713   -0.024464   -0.029088
   2 H     1.0000    0     1.008   -0.999017    0.932791    1.442550
   3 H     1.0000    0     1.008   -0.914827    0.963339   -1.666351
   4 H     1.0000    0     1.008    2.532342   -1.607314    1.059289
[...]
Integral program output        ... >n2h4.lastint
Gradient program output        ... >n2h4.lastgrad
Dipole moment program output   ... >n2h4.lastmom

List of participating nodes    ...  n2h4.hostnames

	<< Calculating gradient on displaced geometry   4 (of  30) >>
	<< Calculating gradient on displaced geometry   2 (of  30) >>
	<< Calculating gradient on displaced geometry   3 (of  30) >>
	<< Calculating gradient on displaced geometry   5 (of  30) >>
	<< Calculating gradient on displaced geometry   8 (of  30) >>
	<< Calculating gradient on displaced geometry   6 (of  30) >>
	<< Calculating gradient on displaced geometry   1 (of  30) >>
	<< Calculating gradient on displaced geometry   7 (of  30) >>
	<< Calculating gradient on displaced geometry   9 (of  30) >>
	<< Calculating gradient on displaced geometry  10 (of  30) >>
	<< Calculating gradient on displaced geometry  11 (of  30) >>
	<< Calculating gradient on displaced geometry  12 (of  30) >>
	<< Calculating gradient on displaced geometry  14 (of  30) >>
	<< Calculating gradient on displaced geometry  13 (of  30) >>
	<< Calculating gradient on displaced geometry  15 (of  30) >>
	<< Calculating gradient on displaced geometry  16 (of  30) >>
	<< Calculating gradient on displaced geometry  17 (of  30) >>
	<< Calculating gradient on displaced geometry  18 (of  30) >>
	<< Calculating gradient on displaced geometry  19 (of  30) >>
	<< Calculating gradient on displaced geometry  20 (of  30) >>
	<< Calculating gradient on displaced geometry  21 (of  30) >>
	<< Calculating gradient on displaced geometry  22 (of  30) >>
	<< Calculating gradient on displaced geometry  23 (of  30) >>
	<< Calculating gradient on displaced geometry  24 (of  30) >>
	<< Calculating gradient on displaced geometry  25 (of  30) >>
	<< Calculating gradient on displaced geometry  26 (of  30) >>
	<< Calculating gradient on displaced geometry  27 (of  30) >>
	<< Calculating gradient on displaced geometry  29 (of  30) >>
	<< Calculating gradient on displaced geometry  28 (of  30) >>
	<< Calculating gradient on displaced geometry  30 (of  30) >>

-----------------------
VIBRATIONAL FREQUENCIES
-----------------------

Scaling factor for frequencies =  1.000000000  (already applied!)

     0:       0.00 cm**-1
     1:       0.00 cm**-1
     2:       0.00 cm**-1
     3:       0.00 cm**-1
     4:       0.00 cm**-1
     5:       0.00 cm**-1
     6:     449.91 cm**-1
     7:     820.83 cm**-1
     8:    1001.65 cm**-1
     9:    1119.62 cm**-1
    10:    1305.01 cm**-1
    11:    1334.80 cm**-1
    12:    1681.33 cm**-1
    13:    1698.14 cm**-1
    14:    3433.89 cm**-1
    15:    3449.17 cm**-1
    16:    3545.61 cm**-1
    17:    3551.67 cm**-1


------------
NORMAL MODES
------------

These modes are the Cartesian displacements weighted by the diagonal matrix
M(i,i)=1/sqrt(m[i]) where m[i] is the mass of the displaced atom
Thus, these vectors are normalized but *not* orthogonal

                  0          1          2          3          4          5    
      0       0.000000   0.000000   0.000000   0.000000   0.000000   0.000000
      1       0.000000   0.000000   0.000000   0.000000   0.000000   0.000000
      2       0.000000   0.000000   0.000000   0.000000   0.000000   0.000000
      3       0.000000   0.000000   0.000000   0.000000   0.000000   0.000000
      4       0.000000   0.000000   0.000000   0.000000   0.000000   0.000000
      5       0.000000   0.000000   0.000000   0.000000   0.000000   0.000000
      6       0.000000   0.000000   0.000000   0.000000   0.000000   0.000000
      7       0.000000   0.000000   0.000000   0.000000   0.000000   0.000000
      8       0.000000   0.000000   0.000000   0.000000   0.000000   0.000000
      9       0.000000   0.000000   0.000000   0.000000   0.000000   0.000000
     10       0.000000   0.000000   0.000000   0.000000   0.000000   0.000000
     11       0.000000   0.000000   0.000000   0.000000   0.000000   0.000000
     12       0.000000   0.000000   0.000000   0.000000   0.000000   0.000000
     13       0.000000   0.000000   0.000000   0.000000   0.000000   0.000000
     14       0.000000   0.000000   0.000000   0.000000   0.000000   0.000000
     15       0.000000   0.000000   0.000000   0.000000   0.000000   0.000000
     16       0.000000   0.000000   0.000000   0.000000   0.000000   0.000000
     17       0.000000   0.000000   0.000000   0.000000   0.000000   0.000000
                  6          7          8          9         10         11    
      0       0.011791  -0.168290  -0.043766  -0.186890  -0.003865  -0.034829
      1       0.006802  -0.072841  -0.068454   0.042252   0.053733   0.060280
      2      -0.037801  -0.004218  -0.015096  -0.009364   0.059005  -0.061766
      3      -0.009956   0.172549  -0.045644   0.185081   0.002643   0.034803
      4      -0.038579   0.006912   0.010892  -0.000246  -0.057751  -0.061343
      5       0.005066  -0.064080   0.066053   0.051631  -0.055103   0.060940
      6      -0.051955   0.307774   0.192306  -0.566584  -0.471369   0.412445
      7      -0.446619   0.389981   0.353723  -0.265678  -0.119700  -0.044433
      8       0.215707  -0.002045  -0.113633  -0.038249  -0.094211   0.212680
      9       0.023317   0.144948   0.408438  -0.136887   0.487655  -0.506596
     10       0.444587   0.405363   0.377483  -0.183614  -0.014530  -0.126615
     11       0.226840   0.171221   0.098329  -0.146340  -0.098775  -0.036727
     12      -0.061222  -0.180649   0.432279   0.147735   0.481662   0.514024
     13       0.212632   0.151983  -0.064309  -0.132116   0.124823  -0.006170
     14       0.448821   0.404448  -0.353581  -0.173712   0.044178  -0.100531
     15       0.064362  -0.331255   0.209400   0.580885  -0.480973  -0.419518
     16       0.230960  -0.031192   0.132972  -0.002302   0.065236   0.191999
     17      -0.436498   0.375438  -0.339201  -0.229034   0.094596  -0.063933
                 12         13         14         15         16         17    
      0       0.048876   0.033413   0.021528   0.025184  -0.001613   0.004146
      1      -0.016828  -0.014033  -0.025336  -0.030574   0.011858  -0.013623
      2       0.020707  -0.013482  -0.021003  -0.017949  -0.055827   0.053790
      3       0.049466  -0.031113   0.021781  -0.019598   0.004139   0.006585
      4      -0.018210  -0.015039   0.023956  -0.015693  -0.055558  -0.054026
      5       0.019239  -0.016022   0.031192  -0.028275   0.010560   0.012724
      6      -0.375420  -0.265803  -0.254711  -0.268955  -0.126035   0.090369
      7       0.218615   0.220510   0.267260   0.297775   0.158642  -0.121628
      8      -0.312340  -0.283671   0.494859   0.537778   0.239457  -0.174031
      9      -0.314992  -0.455836  -0.044926  -0.075974   0.140806  -0.148801
     10       0.220273   0.208600   0.087134   0.140671  -0.317465   0.324544
     11       0.238875   0.231241  -0.198831  -0.300906   0.529988  -0.559214
     12      -0.294470   0.425451  -0.061808   0.076011  -0.152045  -0.163434
     13      -0.252664   0.246666   0.235343  -0.266429   0.527900   0.564533
     14      -0.246781   0.237247  -0.100871   0.121896  -0.309811  -0.320911
     15      -0.381669   0.264235  -0.240375   0.191291   0.102166   0.072754
     16       0.300650  -0.271799  -0.570561   0.470902   0.238171   0.172593
     17      -0.234834   0.225172  -0.336742   0.283549   0.169392   0.129885


-----------
IR SPECTRUM
-----------

 Mode   freq       eps      Int      T**2         TX        TY        TZ
       cm**-1   L/(mol*cm) km/mol    a.u.
----------------------------------------------------------------------------
  6:    449.91   0.007587   38.34  0.005262  (-0.003852  0.053345  0.049009)
  7:    820.83   0.015431   77.98  0.005866  (-0.002824  0.052270  0.055914)
  8:   1001.65   0.030089  152.06  0.009374  ( 0.075355  0.045593 -0.040214)
  9:   1119.62   0.002526   12.77  0.000704  ( 0.000071 -0.018377 -0.019140)
 10:   1305.01   0.001047    5.29  0.000250  ( 0.005632 -0.010415  0.010494)
 11:   1334.80   0.000752    3.80  0.000176  ( 0.000836 -0.008498 -0.010141)
 12:   1681.33   0.003855   19.48  0.000716  (-0.003807  0.018786 -0.018658)
 13:   1698.14   0.002624   13.26  0.000482  (-0.000840  0.014148  0.016770)
 14:   3433.89   0.004367   22.07  0.000397  ( 0.019907  0.000709  0.000218)
 15:   3449.17   0.000502    2.54  0.000045  ( 0.001448 -0.004249 -0.005028)
 16:   3545.61   0.000063    0.32  0.000006  ( 0.000064 -0.001535 -0.001796)
 17:   3551.67   0.000004    0.02  0.000000  (-0.000469 -0.000040  0.000322)

* The epsilon (eps) is given for a Dirac delta lineshape.
** The dipole moment derivative (T) already includes vibrational overlap.

The first frequency considered to be a vibration is 6
The total number of vibrations considered is 12


--------------------------
THERMOCHEMISTRY AT 298.15K
--------------------------

Temperature         ...   298.15 K
Pressure            ...     1.00 atm
Total Mass          ...    32.05 AMU
Quasi RRHO          ...     True
Cut-Off Frequency   ...     1.00 cm^-1

Throughout the following assumptions are being made:
  (1) The electronic state is orbitally nondegenerate
  (2) There are no thermally accessible electronically excited states
  (3) Hindered rotations indicated by low frequency modes are not
      treated as such but are treated as vibrations and this may
      cause some error
  (4) All equations used are the standard statistical mechanics
      equations for an ideal gas
  (5) All vibrations are strictly harmonic

freq.     449.91  E(vib)   ...       0.17 
freq.     820.83  E(vib)   ...       0.05 
freq.    1001.65  E(vib)   ...       0.02 
freq.    1119.62  E(vib)   ...       0.01 
freq.    1305.01  E(vib)   ...       0.01 
freq.    1334.80  E(vib)   ...       0.01 
freq.    1681.33  E(vib)   ...       0.00 
freq.    1698.14  E(vib)   ...       0.00 
freq.    3433.89  E(vib)   ...       0.00 
freq.    3449.17  E(vib)   ...       0.00 
freq.    3545.61  E(vib)   ...       0.00 
freq.    3551.67  E(vib)   ...       0.00 

------------
INNER ENERGY
------------

The inner energy is: U= E(el) + E(ZPE) + E(vib) + E(rot) + E(trans)
    E(el)   - is the total energy from the electronic structure calculation
              = E(kin-el) + E(nuc-el) + E(el-el) + E(nuc-nuc)
    E(ZPE)  - the the zero temperature vibrational energy from the frequency calculation
    E(vib)  - the the finite temperature correction to E(ZPE) due to population
              of excited vibrational states
    E(rot)  - is the rotational thermal energy
    E(trans)- is the translational thermal energy

Summary of contributions to the inner energy U:
Electronic energy                ...   -111.83568683 Eh
Zero point energy                ...      0.05329007 Eh      33.44 kcal/mol
Thermal vibrational correction   ...      0.00042132 Eh       0.26 kcal/mol
Thermal rotational correction    ...      0.00141627 Eh       0.89 kcal/mol
Thermal translational correction ...      0.00141627 Eh       0.89 kcal/mol
-----------------------------------------------------------------------
Total thermal energy                   -111.77914289 Eh


Summary of corrections to the electronic energy:
(perhaps to be used in another calculation)
Total thermal correction                  0.00325387 Eh       2.04 kcal/mol
Non-thermal (ZPE) correction              0.05329007 Eh      33.44 kcal/mol
-----------------------------------------------------------------------
Total correction                          0.05654393 Eh      35.48 kcal/mol


--------
ENTHALPY
--------

The enthalpy is H = U + kB*T
                kB is Boltzmann's constant
Total thermal energy              ...   -111.77914289 Eh 
Thermal Enthalpy correction       ...      0.00094421 Eh       0.59 kcal/mol
-----------------------------------------------------------------------
Total Enthalpy                    ...   -111.77819869 Eh


Note: Only C1 symmetry has been detected, increase convergence thresholds 
      if your molecule has a higher symmetry. Symmetry factor of 1.0 is   
      used for the rotational entropy correction. 
 

Note: Rotational entropy computed according to Herzberg 
Infrared and Raman Spectra, Chapter V,1, Van Nostrand Reinhold, 1945 
Point Group:  C1, Symmetry Number:   1  
Rotational constants in cm-1:     4.815811     0.808670     0.808263 

Vibrational entropy computed according to the QRRHO of S. Grimme
Chem.Eur.J. 2012 18 9955 using a reference frequency of 100.0 cm-1


-------
ENTROPY
-------

The entropy contributions are T*S = T*(S(el)+S(vib)+S(rot)+S(trans))
     S(el)   - electronic entropy
     S(vib)  - vibrational entropy
     S(rot)  - rotational entropy
     S(trans)- translational entropy
The entropies will be listed as multiplied by the temperature to get
units of energy

Electronic entropy                ...      0.00000000 Eh      0.00 kcal/mol
Vibrational entropy               ...      0.00057016 Eh      0.36 kcal/mol
Rotational entropy                ...      0.00896948 Eh      5.63 kcal/mol
Translational entropy             ...      0.01725953 Eh     10.83 kcal/mol
-----------------------------------------------------------------------
Final entropy term                ...      0.02679916 Eh     16.82 kcal/mol

In case the symmetry of your molecule has not been determined correctly
or in case you have a reason to use a different symmetry number we print 
out the resulting rotational entropy values for sn=1,12:

 non-linear molecules -----------------------------------
|  sn= 1 | S(rot)=       0.00896948 Eh      5.63 kcal/mol|
|  sn= 2 | S(rot)=       0.00831502 Eh      5.22 kcal/mol|
|  sn= 3 | S(rot)=       0.00793219 Eh      4.98 kcal/mol|
|  sn= 4 | S(rot)=       0.00766056 Eh      4.81 kcal/mol|
|  sn= 5 | S(rot)=       0.00744988 Eh      4.67 kcal/mol|
|  sn= 6 | S(rot)=       0.00727773 Eh      4.57 kcal/mol|
|  sn= 7 | S(rot)=       0.00713219 Eh      4.48 kcal/mol|
|  sn= 8 | S(rot)=       0.00700611 Eh      4.40 kcal/mol|
|  sn= 9 | S(rot)=       0.00689490 Eh      4.33 kcal/mol|
|  sn=10 | S(rot)=       0.00679542 Eh      4.26 kcal/mol|
|  sn=11 | S(rot)=       0.00670543 Eh      4.21 kcal/mol|
|  sn=12 | S(rot)=       0.00662328 Eh      4.16 kcal/mol|
 linear molecules ---------------------------------------
|  Dinfh | S(rot)=       0.00552679 Eh      3.47 kcal/mol|
|  Cinfv | S(rot)=       0.00618125 Eh      3.88 kcal/mol|
 --------------------------------------------------------


-------------------
GIBBS FREE ENERGY
-------------------

The Gibbs free energy is G = H - T*S

Total enthalpy                    ...   -111.77819869 Eh 
Total entropy correction          ...     -0.02679916 Eh    -16.82 kcal/mol
-----------------------------------------------------------------------
Final Gibbs free energy         ...   -111.80499785 Eh

For completeness - the Gibbs free energy minus the electronic energy
G-E(el)                           ...      0.03068898 Eh     19.26 kcal/mol



--------------------------------
SUGGESTED CITATIONS FOR THIS RUN
--------------------------------

Below you find a list of papers that are relevant to this ORCA run
We neither can nor want to force you to cite these papers, but we appreciate if you do
You receive ORCA, which is the product of decades of hard work by many enthusiastic individuals, for free
The only thing we kindly ask in return is that you cite our papers,
We deeply appreciate it, if you show your appreciation for ORCA by not just citing the generic ORCA reference.

Please note that relegating all ORCA citations to the supporting information does *not* help us.
SI sections are not indexed - citations you put there will not count into any citation statistics
But we need these citations in order to attract the funding resources that allow us to do what we are doing

Therefore, if you are a happy ORCA user, please consider citing a few of the papers listed below in the main body of your paper

In addition to the list printed below, the program has created the file n2h4.bibtex that contains the list in bibtex format
You can import this file easily into all common literature databanks and citation aid programs


List of essential papers. We consider these as the minimum necessary citations

  1. Neese, F.
     Software update: the ORCA program system, version 6.0
     WIRES Comput. Molec. Sci. 2025 15(1), e70019
     doi.org/10.1002/wcms.7019

List of papers to cite with high priority. The work reported in these papers was absolutely
necessary for this run to complete.
Our perspective: the developers of density functionals and basis sets usually get cited in chemistry papers
Good! But without the algorithms to do something with them, the functionals or basis sets would not do anything.
Hence, in our opinion, the algorithm design and method developments papers are equally worthy of getting cited

  1. Neese, F.
     An improvement of the resolution of the identity approximation for the formation of the Coulomb matrix
     J. Comp. Chem. 2003 24(14), 1740-1747
     doi.org/10.1002/jcc.10318
  2. Neese, F.; Wennmohs, F.; Hansen, A.; Becker, U.
     Efficient, approximate and parallel Hartree-Fock and hybrid DFT calculations. A 'chain-of-spheres' algorithm for the Hartree-Fock exchange
     Chem. Phys. 2009 356(1-3), 98-109
     doi.org/10.1016/j.chemphys.2008.10.036
  3. Helmich-Paris, B.; de Souza, B.; Neese, F.; Izsák, R.
     An improved chain of spheres for exchange algorithm
     J. Chem. Phys. 2021 155(10), 104109
     doi.org/10.1063/5.0058766
  4. Neese, F.
     The SHARK Integral Generation and Digestion System
     J. Comp. Chem. 2022 44(3), 381
     doi.org/10.1002/jcc.26942

List of suggested additional citations. These are papers that are important in the 'surrounding' of 
of this run, or papers that preceded the highly important papers. If you like your results we are grateful for a citation.

  1. Izsak, R.; Neese, F.
     An overlap fitted chain of spheres exchange method
     J. Chem. Phys. 2011 135 , 144105
     doi.org/10.1063/1.3646921
  2. Izsak, R.; Hansen, A.; Neese, F.
     The resolution of identity and chain of spheres approximations for the LPNO-CCSD singles Fock term
     Molec. Phys. 2012 110 , 2413-2417
     doi.org/10.1080/00268976.2012.687466
  3. Neese, F.
     The ORCA program system
     WIRES Comput. Molec. Sci. 2012 2(1), 73-78
     doi.org/10.1002/wcms.81
  4. Izsak, R.; Neese, F.; Klopper, W.
     Robust fitting techniques in the chain of spheres approximation to the Fock exchange: The role of the complementary space
     J. Chem. Phys. 2013 139 , 
     doi.org/10.1063/1.4819264
  5. Neese, F.
     Software update: the ORCA program system, version 4.0
     WIRES Comput. Molec. Sci. 2018 8(1), 1-6
     doi.org/10.1002/wcms.1327
  6. Neese, F.; Wennmohs, F.; Becker, U.; Riplinger, C.
     The ORCA quantum chemistry program package
     J. Chem. Phys. 2020 152(22), 224108
     doi.org/10.1063/5.0004608
  7. Neese, F.
     Software update: The ORCA program system—Version 5.0
     WIRES Comput. Molec. Sci. 2022 12(1), e1606
     doi.org/10.1002/wcms.1606

List of optional additional citations

  1. Neese, F.
     Approximate second-order SCF convergence for spin unrestricted wavefunctions
     Chem. Phys. Lett. 2000 325(1-3), 93-98
     doi.org/10.1016/s0009-2614(00)00662-x

Timings for individual modules:

Sum of individual times          ...       70.946 sec (=   1.182 min)
Startup calculation              ...        9.204 sec (=   0.153 min)  13.0 %
SCF iterations                   ...       23.182 sec (=   0.386 min)  32.7 %
Property calculations            ...        0.580 sec (=   0.010 min)   0.8 %
SCF Gradient evaluation          ...       11.550 sec (=   0.193 min)  16.3 %
Geometry relaxation              ...        0.124 sec (=   0.002 min)   0.2 %
Numerical frequency calculation  ...       26.305 sec (=   0.438 min)  37.1 %
                             ****ORCA TERMINATED NORMALLY****
TOTAL RUN TIME: 0 days 0 hours 1 minutes 13 seconds 612 msec
