
                                 *****************
                                 * O   R   C   A *
                                 *****************

                                            #,                                       
                                            ###                                      
                                            ####                                     
                                            #####                                    
                                            ######                                   
                                           ########,                                 
                                     ,,################,,,,,                         
                               ,,#################################,,                 
                          ,,##########################################,,             
                       ,#########################################, ''#####,          
                    ,#############################################,,   '####,        
                  ,##################################################,,,,####,       
                ,###########''''           ''''###############################       
              ,#####''   ,,,,##########,,,,          '''####'''          '####       
            ,##' ,,,,###########################,,,                        '##       
           ' ,,###''''                  '''############,,,                           
         ,,##''                                '''############,,,,        ,,,,,,###''
      ,#''                                            '''#######################'''  
     '                                                          ''''####''''         
             ,#######,   #######,   ,#######,      ##                                
            ,#'     '#,  ##    ##  ,#'     '#,    #''#        ,####,    ,#,          
            ##       ##  ##   ,#'  ##            #'  '#       #'       ,# #          
            ##       ##  #######   ##           ,######,      #####,      #          
            '#,     ,#'  ##    ##  '#,     ,#' ,#      #,     #,   #      #          
             '#######'   ##     ##  '#######'  #'      '#     '####' #    #          



                #########################################################
                #                        -***-                          #
                #          Department of theory and spectroscopy        #
                #                                                       #
                #                      Frank Neese                      #
                #                                                       #
                #     Directorship, Architecture, Infrastructure        #
                #                    SHARK, DRIVERS                     #
                #        Core code/Algorithms in most modules           #
                #                                                       #
                #        Max Planck Institute fuer Kohlenforschung      #
                #                Kaiser Wilhelm Platz 1                 #
                #                 D-45470 Muelheim/Ruhr                 #
                #                      Germany                          #
                #                                                       #
                #                  All rights reserved                  #
                #                        -***-                          #
                #########################################################


                         Program Version 6.1.0  -  RELEASE   -
                                (GIT: $679e74b$)
                          ($2025-06-10 18:02:51 +0200$)


 With contributions from (in alphabetic order):
[Max-Planck-Institut fuer Kohlenforschung]                               
  Daniel Aravena         : Magnetic Suceptibility                        
  Michael Atanasov       : Ab Initio Ligand Field Theory (pilot matlab implementation)
  Alexander A. Auer      : GIAO ZORA, VPT2 properties, NMR spectrum      
  Ute Becker             : All parallelization in ORCA, NUMFREQ, NUMCALC 
  Giovanni Bistoni       : ED, misc. LED, open-shell LED, HFLD           
  Dmytro Bykov           : pre 5.0 version of the SCF Hessian            
  Marcos Casanova-Páez   : Triplet and SCS-CIS(D). UHF-(DLPNO)-IP/EA/STEOM-CCSD. UHF-CVS-IP/STEOM-CCSD   
  Vijay G. Chilkuri      : MRCI spin determinant printing, contributions to CSF-ICE 
  Pauline Colinet        : FMM embedding                                 
  Dipayan Datta          : RHF DLPNO-CCSD density                        
  Achintya Kumar Dutta   : EOM-CC, STEOM-CC                              
  Nicolas Foglia         : Exact transition moments, OPA infrastructure, MCD improvements    
  Dmitry Ganyushin       : Spin-Orbit,Spin-Spin,Magnetic field MRCI      
  Miquel Garcia-Rates    : C-PCM and meta-GGA Hessian, CCSD/C-PCM, Gaussian charge scheme 
  Tiago L. C. Gouveia    : GS-ROHF, GS-ROCIS                             
  Yang Guo               : DLPNO-NEVPT2, F12-NEVPT2, CIM, IAO-localization        
  Andreas Hansen         : Spin unrestricted coupled pair/coupled cluster methods 
  Ingolf Harden          : AUTO-CI MPn and infrastructure                
  Benjamin Helmich-Paris : MC-RPA, TRAH-(SCF,CASSCF), AVAS, COSX integrals, SCF dyn. polar., MC-PDFT, srDFT 
  Lee Huntington         : MR-EOM, pCC                                   
  Robert Izsak           : Overlap fitted RIJCOSX, COSX-SCS-MP3, EOM     
  Riya Kayal             : Wick's Theorem for AUTO-CI, AUTO-CI UHF-CCSDT 
  Emily Kempfer          : AUTO-CI RHF CISDT and CCSDT, approximate NEVPT4
  Christian Kollmar      : KDIIS, OOCD, Brueckner-CCSD(T), CCSD density, CASPT2, CASPT2-K, improved NEVPT2 
  Axel Koslowski         : Symmetry handling                             
  Simone Kossmann        : meta-GGA functionals, TD-DFT gradient, OOMP2, (MP2 Hessian; deprecated post 5.0) 
  Lucas Lang             : DCDCAS, Hyperfine gauge corrections, ICE-SOC+SSC
  Marvin Lechner         : AUTO-CI (C++ implementation), FIC-MRCC        
  Spencer Leger          : CASSCF response                               
  Dagmar Lenk            : GEPOL surface, SMD, ORCA-2-JSON               
  Dimitrios Liakos       : Extrapolation schemes; Compound Job, Property file
  Dimitrios Manganas     : Further ROCIS development; embedding schemes. LFT, Crystal Embedding 
  Dimitrios Pantazis     : SARC Basis sets                               
  Anastasios Papadopoulos: AUTO-CI, single reference methods and gradients 
  Taras Petrenko         : pre 6.0 DFT Hessian and TD-DFT gradient,  ECA, NRVS 
  Petra Pikulova         : Analytic Raman intensities                    
  Peter Pinski           : DLPNO-MP2, DLPNO-MP2 Gradient                 
  Shashank Vittal Rao    : ES-AILFT, MagRelax                            
  Christoph Reimann      : Effective Core Potentials                     
  Marius Retegan         : Local ZFS, SOC                                
  Christoph Riplinger    : Optimizer, TS searches, QM/MM, DLPNO-CCSD(T), (RO)-DLPNO pert. Triples 
  Michael Roemelt        : Original ROCIS implementation, recursive CI coupling coefficients
  Masaaki Saitow         : Open-shell DLPNO-CCSD energy and density      
  Barbara Sandhoefer     : DKH picture change effects                    
  Yorick L. A. Schmerwitz: GMF and freeze-and-release deltaSCF, NEB S-IDPP initial path                    
  Kantharuban Sivalingam : CASSCF convergence/infrastructure, NEVPT2, NEVPT3, NEVPT4(SD), FIC-MRCI and CEPA variants
  Bernardo de Souza      : ESD, SOC TD-DFT                               
  Georgi L. Stoychev     : AutoAux, RI-MP2 NMR, DLPNO-MP2 response, X2C  
  Van Anh Tran           : RI-MP2 g-tensors                              
  Willem Van den Heuvel  : Paramagnetic NMR                              
  Zikuan Wang            : NOTCH, Electric field optimization            
  Frank Wennmohs         : Technical directorship and infrastructure     
  Hang Xu                : AUTO-CI-Response properties                   
                                                                         
[FACCTs GmbH]                                                            
  Markus Bursch, Nicolas Foglia, Miquel Garcia-Rates, Ingolf Harden, Hagen Neugebauer, Anastasios Papadopoulos, 
  Christoph Riplinger, Bernardo de Souza, Georgi L. Stoychev                                                    
                                                                 
  APM, various basis sets, CI-OPT, improved COSX, DLPNO-Multilevel,           
  DOCKER, DRACO, updates on ESD, Fragmentator, GOAT, IRC, LR-CPCM, L-BFGS, MBIS, meta-GGA TD-DFT gradient, ML-optimized integration grids, 
  MM, NACMEs, nearIR, NEB, NEB-TS, NL-DFT gradient (VV10), 2- and 3-layer-ONIOM, interface openCOSMO-RS, QMMM,   
  Crystal-QMMM, RESP, rigid body optimization, SF, symmetry and pop. for TD-DFT, various functionals, SOLVATOR                                   
                                                                         
[Other institutions]                                                     
  V. Asgeirsson          : NEB                                           
  Christoph Bannwarth    : sTDA-DFT, sTD-DFT, PBEh-3c, B97-3c, D3        
  Giovanni Bistoni       : ETS/NOCV, ADLD/ADEX, COVALED                  
  Martin Brehm           : Molecular dynamics                            
  Ronald Cardenas        : ETS/NOCV                                      
  Martina Colucci        : COVALED                                       
  Sebastian Ehlert       : rSCAN, r2SCAN, r2SCAN-3c, D4, dhf basis sets  
  Marvin Friede          : D4 for Fr, Ra, Ac-Lr                          
  Lars Goerigk           : TD-DFT with DH, B97 family of functionals     
  Stefan Grimme          : VdW corrections, initial TS optimization, DFT functionals, gCP, sTDA/sTD-DF 
  Waldemar Hujo          : DFT-NL                                        
  H. Jonsson             : NEB                                           
  Holger Kruse           : gCP                                           
  Marcel Mueller         : wB97X-3c, vDZP basis set                      
  Hagen Neugebauer       : wr2SCAN, Native XTB                           
  Gianluca Regni         : ADLD/ADEX                                     
  Tobias Risthaus        : pre 6.0 range-separated hybrid DFT and stability analysis
  Lukas Wittmann         : regularized MP2, r2SCAN double-hybrids, wr2SCAN        
                                                                         
We gratefully acknowledge several colleagues who have allowed us to      
interface, adapt or use parts of their codes:                            
  Ed Valeev, F. Pavosevic, A. Kumar             : LibInt (2-el integral package), F12 methods 
  Garnet Chan, S. Sharma, J. Yang, R. Olivares  : DMRG                   
  Ulf Ekstrom                                   : XCFun DFT Library      
  Mihaly Kallay                                 : mrcc  (arbitrary order and MRCC methods)
  Frank Weinhold                                : gennbo (NPA and NBO analysis)           
  Simon Mueller                                 : openCOSMO-RS                            
  Christopher J. Cramer and Donald G. Truhlar   : smd solvation model                     
  S Lehtola, MJT Oliveira, MAL Marques          : LibXC Library                           
  Liviu Ungur et al                             : ANISO software                          


 Your calculation uses the libint2 library for the computation of 2-el integrals
 For citations please refer to: http://libint.valeyev.net

 Your ORCA version has been built with support for libXC version: 7.0.0
 For citations please refer to: https://libxc.gitlab.io

 This ORCA versions uses:
   CBLAS   interface :  Fast vector & matrix operations
   LAPACKE interface :  Fast linear algebra routines
   SCALAPACK package :  Parallel linear algebra routines
   Shared memory     :  Shared parallel matrices
   BLAS/LAPACK       :  OpenBLAS 0.3.29  USE64BITINT DYNAMIC_ARCH NO_AFFINITY Haswell SINGLE_THREADED
        Core in use  :  Haswell
   Copyright (c) 2011-2014, The OpenBLAS Project


  ***********************************
  * Starting time: Tue Sep 30 10:04:17 2025
  * Host name:     sv1-c724
  * Process ID:    1464386
  * Working dir.:  /home/lme/practical_course/practical_course_bachelor/h2o/vpt2_mp2_6_311_g_d_p/tight_opt
  ***********************************

================================================================================

----- Orbital basis set information -----
Your calculation utilizes the basis: 6-311G(d,p)
   H, Li - Ne  : R. Krishnan, J. S. Binkley, R. Seeger and J. A. Pople, J. Chem. Phys. 72, 650 (1980).
   Na - Ar     : A. D. McLean and G. S. Chandler J. Chem. Phys. 72, 5639, (1980).
   K  - Ca     : J.-P. Blaudeau, M. P. McGrath, L. A. Curtiss and L. Radom, J. Chem. Phys. 107, 5016 (1997).
   Ga - Kr     : L. A. Curtiss, M. P. McGrath, J.-P. Blandeau, N. E. Davis, R. C. Binning and L. Radom, J. Chem. Phys. 103, 6104 (1995).
   Pol./Diff.
   H, Li - Cl  : T. Clark, J. Chandrasekhar and P. v. R. Schleyer, J. Comp. Chem. 4, 294 (1983).
   H - Ne      : M. J. Frisch, J. A. Pople and J. S. Binkley, J. Chem. Phys. 80, 3265 (1984).

================================================================================
                                        WARNINGS
                       Please study these warnings very carefully!
================================================================================


WARNING: Instead of the default, updated atomic masses from 2016 are used.


WARNING: TCut can not be >=Thresh
  ===> : TCut is set to 0.01*Thresh

WARNING: The frozen-core approximation for MP2-gradient calculations is turned on by default.

WARNING: Geometry Optimization
  ===> : Switching off AutoStart
         For restart on a previous wavefunction, please use MOREAD

WARNING: Post HF methods need fully converged wavefunctions
  ===> : Setting SCFConvForced true
         You can overwrite this default with %scf ConvForced false 


================================================================================
                                       INPUT FILE
================================================================================
NAME = h2o.inp
|  1> ! MP2 6-311G(d,p) ExtremeSCF 
|  2> ! TIGHTOPT
|  3> 
|  4> %pal nprocs 4 end
|  5> 
|  6> %vpt2
|  7> 	VPT2			On
|  8> 	HessianCutoff 1e-12
|  9> 	PrintLevel 1
| 10> end
| 11> 
| 12> * xyz 0 1
| 13>  O  0.000000  0.000000  0.000000
| 14>   H  0.758602  0.000000  0.504284
| 15>   H  0.758602  0.000000  -0.504284
| 16> *
| 17> 
| 18>                          ****END OF INPUT****
================================================================================

                       *****************************
                       * Geometry Optimization Run *
                       *****************************

Geometry optimization settings:
Update method            Update   .... BFGS
Choice of coordinates    CoordSys .... (2022) Redundant Internals
Initial Hessian          InHess   .... Almloef's Model
Max. no of cycles        MaxIter  .... 50

Convergence Tolerances:
Energy Change            TolE     ....  1.0000e-06 Eh
Max. Gradient            TolMAXG  ....  1.0000e-04 Eh/bohr
RMS Gradient             TolRMSG  ....  3.0000e-05 Eh/bohr
Max. Displacement        TolMAXD  ....  1.0000e-03 bohr
RMS Displacement         TolRMSD  ....  6.0000e-04 bohr
Strict Convergence                .... False

------------------------------------------------------------------------------
                        ORCA OPTIMIZATION COORDINATE SETUP
------------------------------------------------------------------------------

The optimization will be done in redundant internal coordinates (2022)
Making redundant internal coordinates   ...  (2022 redundants) done
Evaluating the initial hessian          ...  (Almloef) done
Evaluating the coordinates              ...  done
Calculating the B-matrix                .... done
Calculating the G-matrix                .... done
The number of degrees of freedom        ....    3

    -----------------------------------------------------------------
                    Redundant Internal Coordinates


    -----------------------------------------------------------------
         Definition                    Initial Value    Approx d2E/dq
    -----------------------------------------------------------------
      1. B(H   1,O   0)                  0.9109         0.622683   
      2. B(H   2,O   0)                  0.9109         0.622683   
      3. A(H   1,O   0,H   2)           67.2283         0.341633   
    -----------------------------------------------------------------

Number of atoms                         .... 3
Number of degrees of freedom            .... 3


         *************************************************************
         *                GEOMETRY OPTIMIZATION CYCLE   1            *
         *************************************************************
---------------------------------
CARTESIAN COORDINATES (ANGSTROEM)
---------------------------------
  O      0.000000    0.000000    0.000000
  H      0.758602    0.000000    0.504284
  H      0.758602    0.000000   -0.504284

----------------------------
CARTESIAN COORDINATES (A.U.)
----------------------------
  NO LB      ZA    FRAG     MASS         X           Y           Z
   0 O     8.0000    0    15.995    0.000000    0.000000    0.000000
   1 H     1.0000    0     1.008    1.433550    0.000000    0.952959
   2 H     1.0000    0     1.008    1.433550    0.000000   -0.952959

--------------------------------
INTERNAL COORDINATES (ANGSTROEM)
--------------------------------
 O      0   0   0     0.000000000000     0.00000000     0.00000000
 H      1   0   0     0.910922250832     0.00000000     0.00000000
 H      1   2   0     0.910922250832    67.22829419     0.00000000

---------------------------
INTERNAL COORDINATES (A.U.)
---------------------------
 O      0   0   0     0.000000000000     0.00000000     0.00000000
 H      1   0   0     1.721393583367     0.00000000     0.00000000
 H      1   2   0     1.721393583367    67.22829419     0.00000000

---------------------
BASIS SET INFORMATION
---------------------
There are 2 groups of distinct atoms

 Group   1 Type O   : 11s5p1d contracted to 4s3p1d pattern {6311/311/1}
 Group   2 Type H   : 5s1p contracted to 3s1p pattern {311/1}

Atom   0O    basis set group =>   1
Atom   1H    basis set group =>   2
Atom   2H    basis set group =>   2


           ************************************************************
           *        Program running with 4 parallel MPI-processes     *
           *              working on a common directory               *
           ************************************************************
------------------------------------------------------------------------------
                             ORCA STARTUP CALCULATIONS
------------------------------------------------------------------------------
------------------------------------------------------------------------------
                   ___                                                        
                  /   \      - P O W E R E D   B Y -                         
                 /     \                                                     
                 |  |  |   _    _      __       _____    __    __             
                 |  |  |  | |  | |    /  \     |  _  \  |  |  /  |          
                  \  \/   | |  | |   /    \    | | | |  |  | /  /          
                 / \  \   | |__| |  /  /\  \   | |_| |  |  |/  /          
                |  |  |   |  __  | /  /__\  \  |    /   |      \           
                |  |  |   | |  | | |   __   |  |    \   |  |\   \          
                \     /   | |  | | |  |  |  |  | |\  \  |  | \   \       
                 \___/    |_|  |_| |__|  |__|  |_| \__\ |__|  \__/        
                                                                              
                      - O R C A' S   B I G   F R I E N D -                    
                                      &                                       
                       - I N T E G R A L  F E E D E R -                       
                                                                              
 v1 FN, 2020, v2 2021, v3 2022-2024                                           
------------------------------------------------------------------------------


----------------------
SHARK INTEGRAL PACKAGE
----------------------

Number of atoms                             ...      3
Number of basis functions                   ...     30
Number of shells                            ...     16
Maximum angular momentum                    ...      2
Integral batch strategy                     ... SHARK/LIBINT Hybrid
RI-J (if used) integral strategy            ... SPLIT-RIJ (Revised 2003 algorithm where possible)
Printlevel                                  ...      1
Contraction scheme used                     ... SEGMENTED contraction
Prescreening option                         ... SCHWARTZ
   Thresh                                   ... 3.000e-16
   Tcut                                     ... 3.000e-18
   Tpresel                                  ... 3.000e-18 
Coulomb Range Separation                    ... NOT USED
Exchange Range Separation                   ... NOT USED
Multipole approximations                    ... NOT USED
Finite Nucleus Model                        ... NOT USED
CABS basis                                  ... NOT available
Auxiliary Coulomb fitting basis             ... NOT available
Auxiliary J/K fitting basis                 ... NOT available
Auxiliary Correlation fitting basis         ... NOT available
Auxiliary 'external' fitting basis          ... NOT available

Checking pre-screening integrals            ... done (  0.0 sec) Dimension = 16
   => SHARK Basis and OBASIS are compatible. Storing Pre-screening
Shell pair information
Shell pair cut-off parameter TPreSel        ...   3.0e-18
Total number of shell pairs                 ...       136
Shell pairs after pre-screening             ...       136
Total number of primitive shell pairs       ...       462
Primitive shell pairs kept                  ...       447
          la=0 lb=0:     55 shell pairs
          la=1 lb=0:     50 shell pairs
          la=1 lb=1:     15 shell pairs
          la=2 lb=0:     10 shell pairs
          la=2 lb=1:      5 shell pairs
          la=2 lb=2:      1 shell pairs

Checking whether 4 symmetric matrices of dimension 30 fit in memory
:Max Core in MB      =   4096.00
 MB in use           =      1.33
 MB left             =   4094.67
 MB needed           =      0.01
 Data fit in memory  = YES
Calculating Nuclear repulsion               ... done (  0.0 sec) ENN=      9.819476461165 Eh

Diagonalization of the overlap matrix:
Smallest eigenvalue                        ... 1.602e-02
Time for diagonalization                   ...    0.000 sec
Threshold for overlap eigenvalues          ... 1.000e-07
Number of eigenvalues below threshold      ... 0
Time for construction of square roots      ...    0.000 sec
Total time needed                          ...    0.001 sec

-------------------
DFT GRID GENERATION
-------------------

General Integration Accuracy     IntAcc      ... 4.388
Radial Grid Type                 RadialGrid  ... OptM3 with GC (2021)
Angular Grid (max. ang.)         AngularGrid ... 4 (Lebedev-302)
Angular grid pruning method      GridPruning ... 4 (adaptive)
Weight generation scheme         WeightScheme... mBecke (2022)
Basis function cutoff            BFCut       ... 3.0000e-16
Integration weight cutoff        WCut        ... 1.0000e-14
Partially contracted basis set               ... off
Rotationally invariant grid construction     ... off
Angular grids for H and He will be reduced by one unit

Total number of grid points                  ...    12766
Total number of batches                      ...      201
Average number of points per batch           ...       63
Average number of grid points per atom       ...     4255
Grids setup in   0.0 sec
Initializing property integral containers    ... done (  0.0 sec)

SHARK setup successfully completed in   0.1 seconds

Maximum memory used throughout the entire STARTUP-calculation: 7.6 MB


           ************************************************************
           *        Program running with 4 parallel MPI-processes     *
           *              working on a common directory               *
           ************************************************************
-------------------------------------------------------------------------------
                                 ORCA GUESS
                   Start orbitals & Density for SCF / CASSCF
-------------------------------------------------------------------------------

------------
SCF SETTINGS
------------
Hamiltonian:
 Ab initio Hamiltonian  Method          .... Hartree-Fock(GTOs)


General Settings:
 Integral files         IntName         .... h2o
 Hartree-Fock type      HFTyp           .... RHF
 Total Charge           Charge          ....    0
 Multiplicity           Mult            ....    1
 Number of Electrons    NEL             ....   10
 Basis Dimension        Dim             ....   30
 Nuclear Repulsion      ENuc            ....      9.8194764612 Eh

Convergence Acceleration:
 AO-DIIS                CNVDIIS         .... on
   Start iteration      DIISMaxIt       ....    12
   Startup error        DIISStart       ....  0.200000
   # of expansion vecs  DIISMaxEq       ....     5
   Bias factor          DIISBfac        ....   1.050
   Max. coefficient     DIISMaxC        ....  10.000
 MO-DIIS                CNVKDIIS        .... off
 Trust-Rad. Augm. Hess. CNVTRAH         .... auto
   Auto Start mean grad. ratio tolernc. ....  1.125000
   Auto Start start iteration           ....    50
   Auto Start num. interpolation iter.  ....    10
   Max. Number of Micro iterations      ....    24
   Max. Number of Macro iterations      .... Maxiter - #DIIS iter
   Number of Davidson start vectors     ....     2
   Converg. threshold    (grad. norm)   ....   1.000e-09
   Grad. Scal. Fac. for Micro threshold ....   0.100
   Minimum threshold for Micro iter.    ....   1.000e-02
   NR start threshold (gradient norm)   ....   1.000e-04
   Initial trust radius                 ....   0.400
   Minimum AH scaling param. (alpha)    ....   1.000
   Maximum AH scaling param. (alpha)    .... 1000.000
   Quad. conv. algorithm                .... NR
   White noise on init. David. guess    .... on
   Maximum white noise                  ....   0.010
   Pseudo random numbers                .... off
   Inactive MOs                         .... canonical
   Orbital update algorithm             .... Taylor
   Preconditioner                       .... Diag
   Full preconditioner red. dimension   ....   250
 SOSCF                 CNVSOSCF           .... on
   Start iteration     SOSCFMaxIt         ....   150
   Startup grad/error  SOSCFStart         ....  0.003300
   Hessian update      SOSCFHessUp        .... L-BFGS
   Autom. constraints  SOSCFAutoConstrain .... off
 Level Shifting         CNVShift        .... on
   Level shift para.    LevelShift      ....    0.2500
   Turn off err/grad.   ShiftErr        ....    0.0010
 Zerner damping         CNVZerner       .... off
 Static damping         CNVDamp         .... on
   Fraction old density DampFac         ....    0.7000
   Max. Damping (<1)    DampMax         ....    0.9800
   Min. Damping (>=0)   DampMin         ....    0.0000
   Turn off err/grad.   DampErr         ....    0.1000

SCF Procedure:
 Maximum # iterations   MaxIter         ....   125
 SCF integral mode      SCFMode         .... Direct
   Integral package                     .... SHARK and LIBINT hybrid scheme
 Reset frequency        DirectResetFreq ....    20
 Integral Threshold     Thresh          ....  3.000e-16 Eh
 Primitive CutOff       TCut            ....  3.000e-18 Eh

Convergence Tolerance:
 Convergence Check Mode ConvCheckMode   .... All-Criteria
 Convergence forced     ConvForced      .... 1
 Energy Change          TolE            ....  1.000e-14 Eh
 Max Density Change     TolMaxP         ....  1.000e-14
 RMS Density Change     TolRMSP         ....  1.000e-14
 Orbital Gradient       TolG            ....  1.000e-09
 Orbital Rotation angle TolX            ....  1.000e-09
 DIIS Error             TolErr          ....  1.000e-14

------------------------------
INITIAL GUESS: MODEL POTENTIAL
------------------------------
Loading Hartree-Fock densities                     ... done
Calculating cut-offs                               ... done
Initializing the effective Hamiltonian             ... done
Setting up the integral package (SHARK)            ... done
Starting the Coulomb interaction                   ... done (   0.0 sec)
Making the grid                                    ... done (   0.0 sec)
Mapping shells                                     ... done
Starting the XC term evaluation                    ... done (   0.0 sec)
Transforming the Hamiltonian                       ... done (   0.0 sec)
Diagonalizing the Hamiltonian                      ... done (   0.0 sec)
Back transforming the eigenvectors                 ... done (   0.0 sec)
Now organizing SCF variables                       ... done
                      ------------------
                      INITIAL GUESS DONE (   0.0 sec)
                      ------------------
             **** ENERGY FILE WAS UPDATED (h2o.en.tmp) ****
Finished Guess after   0.1 sec
Maximum memory used throughout the entire GUESS-calculation: 3.5 MB


           ************************************************************
           *        Program running with 4 parallel MPI-processes     *
           *              working on a common directory               *
           ************************************************************

-------------------------------------------------------------------------------------------
                                      ORCA LEAN-SCF
                              memory conserving SCF solver
-------------------------------------------------------------------------------------------

----------------------------------------D-I-I-S--------------------------------------------
Iteration    Energy (Eh)           Delta-E    RMSDP     MaxDP     DIISErr   Damp  Time(sec)
-------------------------------------------------------------------------------------------
               ***  Starting incremental Fock matrix formation  ***
    1    -75.8823244579135547     0.00e+00  1.29e-02  7.32e-02  4.29e-01  0.700   0.0
    2    -75.9265881227275230    -4.43e-02  8.85e-03  4.81e-02  2.54e-01  0.700   0.0
                               ***Turning on AO-DIIS***
    3    -75.9499084750272431    -2.33e-02  3.13e-03  1.12e-02  1.39e-01  0.700   0.0
    4    -75.9639158736521125    -1.40e-02  1.82e-03  6.34e-03  9.50e-02  0.700   0.0
    5    -75.9731970544514041    -9.28e-03  4.27e-03  1.54e-02  6.81e-02  0.000   0.0
    6    -75.9940801957899339    -2.09e-02  4.33e-04  1.87e-03  5.05e-03  0.000   0.0
                              *** Initializing SOSCF ***
---------------------------------------S-O-S-C-F--------------------------------------
Iteration    Energy (Eh)           Delta-E    RMSDP     MaxDP     MaxGrad    Time(sec)
--------------------------------------------------------------------------------------
    7    -75.9941069643038816    -2.68e-05  2.04e-04  8.28e-04  1.35e-03     0.0
               *** Restarting incremental Fock matrix formation ***
    8    -75.9941111914975806    -4.23e-06  8.71e-05  4.22e-04  2.87e-04     0.0
    9    -75.9941116337288776    -4.42e-07  5.36e-05  2.48e-04  1.36e-04     0.0
   10    -75.9941117117994054    -7.81e-08  8.77e-06  4.41e-05  4.06e-05     0.0
   11    -75.9941117182462023    -6.45e-09  1.59e-06  6.28e-06  4.08e-06     0.0
   12    -75.9941117183654313    -1.19e-10  5.10e-07  1.87e-06  1.09e-06     0.0
   13    -75.9941117183773400    -1.19e-11  1.63e-07  1.10e-06  2.74e-07     0.0
   14    -75.9941117183780790    -7.39e-13  4.45e-08  3.25e-07  8.92e-08     0.0
   15    -75.9941117183780648     1.42e-14  8.66e-09  4.25e-08  2.33e-08     0.0
   16    -75.9941117183780648     0.00e+00  1.97e-09  1.31e-08  3.68e-09     0.0
                          ***Energy convergence achieved***
   17    -75.9941117183780932    -2.84e-14  1.65e-11  9.10e-11  1.10e-09     0.0
                    ***Orbital Rotation convergence achieved***
   18    -75.9941117183780648     2.84e-14  0.00e+00  0.00e+00  9.94e-10     0.0
                           ***RMSP convergence achieved***
                           ***MAXP convergence achieved***
                       ***Gradient convergence achieved***
   19    -75.9941117183780648     0.00e+00  0.00e+00  0.00e+00  9.94e-10     0.0
                          ***Energy convergence achieved***

               *****************************************************
               *                     SUCCESS                       *
               *           SCF CONVERGED AFTER  19 CYCLES          *
               *****************************************************

             **** ENERGY FILE WAS UPDATED (h2o.en.tmp) ****

----------------
TOTAL SCF ENERGY
----------------

Total Energy       :        -75.99411171837806 Eh           -2067.90491 eV

Components:
Nuclear Repulsion  :          9.81947646116537 Eh             267.20154 eV
Electronic Energy  :        -85.81358817954343 Eh           -2335.10645 eV
One Electron Energy:       -124.07028986368076 Eh           -3376.12423 eV
Two Electron Energy:         38.25670168413733 Eh            1041.01778 eV

Virial components:
Potential Energy   :       -152.30897643456234 Eh           -4144.53795 eV
Kinetic Energy     :         76.31486471618429 Eh            2076.63304 eV
Virial Ratio       :          1.99579697875376

---------------
SCF CONVERGENCE
---------------

  Last Energy change         ...    0.0000e+00  Tolerance :   1.0000e-14
  Last MAX-Density change    ...    0.0000e+00  Tolerance :   1.0000e-14
  Last RMS-Density change    ...    0.0000e+00  Tolerance :   1.0000e-14
  Last DIIS Error            ...    1.3460e-03  Tolerance :   1.0000e-14
  Last Orbital Gradient      ...    9.9367e-10  Tolerance :   1.0000e-09
  Last Orbital Rotation      ...    0.0000e+00  Tolerance :   1.0000e-09


----------------
ORBITAL ENERGIES
----------------

  NO   OCC          E(Eh)            E(eV) 
   0   2.0000     -20.551447      -559.2333 
   1   2.0000      -1.411649       -38.4129 
   2   2.0000      -0.662641       -18.0314 
   3   2.0000      -0.637410       -17.3448 
   4   2.0000      -0.515295       -14.0219 
   5   0.0000       0.140797         3.8313 
   6   0.0000       0.228548         6.2191 
   7   0.0000       0.564317        15.3558 
   8   0.0000       0.624046        16.9811 
   9   0.0000       0.990668        26.9574 
  10   0.0000       0.996241        27.1091 
  11   0.0000       1.135305        30.8932 
  12   0.0000       1.270408        34.5696 
  13   0.0000       1.451885        39.5078 
  14   0.0000       1.467903        39.9437 
  15   0.0000       1.725921        46.9647 
*Only the first 10 virtual orbitals were printed.

                    ********************************
                    * MULLIKEN POPULATION ANALYSIS *
                    ********************************

-----------------------
MULLIKEN ATOMIC CHARGES
-----------------------
   0 O :   -0.413198
   1 H :    0.206599
   2 H :    0.206599
Sum of atomic charges:   -0.0000000

--------------------------------
MULLIKEN REDUCED ORBITAL CHARGES
--------------------------------
  0 O s       :     3.833763  s :     3.833763
      pz      :     1.386250  p :     4.561247
      px      :     1.236978
      py      :     1.938019
      dz2     :     0.000529  d :     0.018189
      dxz     :     0.009536
      dyz     :     0.000000
      dx2y2   :     0.006397
      dxy     :     0.001726

  1 H s       :     0.708779  s :     0.708779
      pz      :     0.026234  p :     0.084622
      px      :     0.028260
      py      :     0.030128

  2 H s       :     0.708779  s :     0.708779
      pz      :     0.026234  p :     0.084622
      px      :     0.028260
      py      :     0.030128



                     *******************************
                     * LOEWDIN POPULATION ANALYSIS *
                     *******************************

----------------------
LOEWDIN ATOMIC CHARGES
----------------------
   0 O :   -0.035701
   1 H :    0.017850
   2 H :    0.017850

-------------------------------
LOEWDIN REDUCED ORBITAL CHARGES
-------------------------------
  0 O s       :     3.367446  s :     3.367446
      pz      :     1.397156  p :     4.648010
      px      :     1.390317
      py      :     1.860536
      dz2     :     0.000169  d :     0.020245
      dxz     :     0.011251
      dyz     :    -0.000000
      dx2y2   :     0.008434
      dxy     :     0.000391

  1 H s       :     0.727703  s :     0.727703
      pz      :     0.081421  p :     0.254447
      px      :     0.103490
      py      :     0.069536

  2 H s       :     0.727703  s :     0.727703
      pz      :     0.081421  p :     0.254447
      px      :     0.103490
      py      :     0.069536



                      *****************************
                      * MAYER POPULATION ANALYSIS *
                      *****************************

  NA   - Mulliken gross atomic population
  ZA   - Total nuclear charge
  QA   - Mulliken gross atomic charge
  VA   - Mayer's total valence
  BVA  - Mayer's bonded valence
  FA   - Mayer's free valence

  ATOM       NA         ZA         QA         VA         BVA        FA
  0 O      8.4132     8.0000    -0.4132     1.9233     1.9233    -0.0000
  1 H      0.7934     1.0000     0.2066     1.0050     1.0050    -0.0000
  2 H      0.7934     1.0000     0.2066     1.0050     1.0050    -0.0000

  Mayer bond orders larger than 0.100000
B(  0-O ,  1-H ) :   0.9616 B(  0-O ,  2-H ) :   0.9616 

-------
TIMINGS
-------

Total SCF time: 0 days 0 hours 0 min 0 sec 

Total time                  ....       0.182 sec
Sum of individual times     ....       0.163 sec  ( 89.7%)

SCF preparation             ....       0.043 sec  ( 23.5%)
Fock matrix formation       ....       0.057 sec  ( 31.2%)
  Startup                   ....       0.001 sec  (  2.2% of F)
  Coulomb+Exchange Fock     ....       0.050 sec  ( 87.7% of F)
Diagonalization             ....       0.000 sec  (  0.0%)
Density matrix formation    ....       0.010 sec  (  5.6%)
Total Energy calculation    ....       0.007 sec  (  3.6%)
Population analysis         ....       0.003 sec  (  1.7%)
Orbital Transformation      ....       0.003 sec  (  1.7%)
Orbital Orthonormalization  ....       0.000 sec  (  0.0%)
DIIS solution               ....       0.017 sec  (  9.3%)
SOSCF solution              ....       0.024 sec  ( 13.0%)
Finished LeanSCF after   0.2 sec

Maximum memory used throughout the entire LEANSCF-calculation: 7.1 MB


           ************************************************************
           *        Program running with 4 parallel MPI-processes     *
           *              working on a common directory               *
           ************************************************************

------------------------------------------------------------------------------
                                ORCA  MP2 
------------------------------------------------------------------------------

Freezing NCore=2 chemical core electrons
MP2 will be done in the AO integral direct mode
The Q1-step will be done using symmetric double matrices
Dimension of the basis                    ...   30
Memory devoted for MP2                    ... 4096 MB   
Memory needed for all in one shot         ...    1 MB
Number of MOs that can be treated together... 38484      
MP2 density construction                  ... relaxed
The MP2 gradient is requested => amplitudes will be stored on disk
Total number of MOs              ...    4
Number of MOs treated per batch  ...    1 
Number of batches necessary      ...    1 
OPERATORS   0/  0 PASS   2
OPERATORS   0/  0 PASS   0
OPERATORS   0/  0 PASS   3
OPERATORS   0/  0 PASS   1
-----------------------------------------------
 MP2 CORRELATION ENERGY   :     -0.219825864 Eh
-----------------------------------------------


---------------------
MP2 DENSITY FORMATION
---------------------

Completing the external part of the density      ... done
Storing the unrelaxed density                    ... done

Calculating G(D)                                 ... done
Completing the Lagrangian                        ... done
Solving the Z-vector equations                   ... 
-------------------
SHARK CP-SCF DRIVER
-------------------

Dimension of the orbital basis          ...     30
Dimension of the CPSCF-problem          ...    125
Number of operators                     ...      1
Max. number of iterations               ...    128
Convergence Tolerance                   ... 3.0e-06
Number of perturbations                 ...      1
Perturbation type                       ... REAL

----------------------------
POPLE LINEAR EQUATION SOLVER
----------------------------

  ITERATION   0:   ||err||_max =   1.6200e-02 (   0.0 sec)
  ITERATION   1:   ||err||_max =   3.8269e-03 (   0.0 sec)
  ITERATION   2:   ||err||_max =   7.2293e-04 (   0.0 sec)
  ITERATION   3:   ||err||_max =   1.8202e-04 (   0.0 sec)
  ITERATION   4:   ||err||_max =   2.7601e-05 (   0.0 sec)
  ITERATION   5:   ||err||_max =   4.0734e-06 (   0.0 sec)
  ITERATION   6:   ||err||_max =   7.3011e-07 (   0.0 sec)
                                                 ... done
Finalizing the relaxed density                   ... done
Transforming P to the AO basis                   ... done
Storing the relaxed density                      ... done

------------------------------------
ENERGY WEIGHTED DENSITY FINALIZATION
------------------------------------

Gathering the parts of the W-matrix              ...                                                      done
Forming the Z-density                            ... done
Transforming Z to the AO basis                   ... done
Calculating G(Z)                                 ... done
Finalizing the W-matrix                          ...                                                      done
Transforming W to the AO basis and storing       ... done

                *********************************************
                * UNRELAXED MP2 DENSITY POPULATION ANALYSIS *
                *********************************************

------------------------------------------------------------------------------
                           ORCA POPULATION ANALYSIS
------------------------------------------------------------------------------
Input electron density              ... h2o.pmp2ur
BaseName (.gbw .S,...)              ... h2o

                    ********************************
                    * MULLIKEN POPULATION ANALYSIS *
                    ********************************

-----------------------
MULLIKEN ATOMIC CHARGES
-----------------------
   0 O :   -0.405044
   1 H :    0.202522
   2 H :    0.202522
Sum of atomic charges:   -0.0000000

--------------------------------
MULLIKEN REDUCED ORBITAL CHARGES
--------------------------------
  0 O s       :     3.830398  s :     3.830398
      pz      :     1.379311  p :     4.540399
      px      :     1.231992
      py      :     1.929097
      dz2     :     0.003763  d :     0.034247
      dxz     :     0.012502
      dyz     :     0.003392
      dx2y2   :     0.009477
      dxy     :     0.005114
  1 H s       :     0.710361  s :     0.710361
      pz      :     0.026747  p :     0.087117
      px      :     0.028521
      py      :     0.031849
  2 H s       :     0.710361  s :     0.710361
      pz      :     0.026747  p :     0.087117
      px      :     0.028521
      py      :     0.031849


                     *******************************
                     * LOEWDIN POPULATION ANALYSIS *
                     *******************************

----------------------
LOEWDIN ATOMIC CHARGES
----------------------
   0 O :   -0.028269
   1 H :    0.014135
   2 H :    0.014135

-------------------------------
LOEWDIN REDUCED ORBITAL CHARGES
-------------------------------
  0 O s       :     3.365453  s :     3.365453
      pz      :     1.389622  p :     4.625241
      px      :     1.383287
      py      :     1.852332
      dz2     :     0.003368  d :     0.037575
      dxz     :     0.014966
      dyz     :     0.003378
      dx2y2   :     0.012090
      dxy     :     0.003772
  1 H s       :     0.727218  s :     0.727218
      pz      :     0.082430  p :     0.258647
      px      :     0.105307
      py      :     0.070909
  2 H s       :     0.727218  s :     0.727218
      pz      :     0.082430  p :     0.258647
      px      :     0.105307
      py      :     0.070909


                      *****************************
                      * MAYER POPULATION ANALYSIS *
                      *****************************

  NA   - Mulliken gross atomic population
  ZA   - Total nuclear charge
  QA   - Mulliken gross atomic charge
  VA   - Mayer's total valence
  BVA  - Mayer's bonded valence
  FA   - Mayer's free valence

  ATOM       NA         ZA         QA         VA         BVA        FA
  0 O      8.4050     8.0000    -0.4050     2.1398     1.8358     0.3040
  1 H      0.7975     1.0000     0.2025     1.0142     0.9600     0.0542
  2 H      0.7975     1.0000     0.2025     1.0142     0.9600     0.0542

  Mayer bond orders larger than 0.100000
B(  0-O ,  1-H ) :   0.9179 B(  0-O ,  2-H ) :   0.9179 


                *******************************************
                * RELAXED MP2 DENSITY POPULATION ANALYSIS *
                *******************************************

------------------------------------------------------------------------------
                           ORCA POPULATION ANALYSIS
------------------------------------------------------------------------------
Input electron density              ... h2o.pmp2re
BaseName (.gbw .S,...)              ... h2o

                    ********************************
                    * MULLIKEN POPULATION ANALYSIS *
                    ********************************

-----------------------
MULLIKEN ATOMIC CHARGES
-----------------------
   0 O :   -0.380790
   1 H :    0.190395
   2 H :    0.190395
Sum of atomic charges:   -0.0000000

--------------------------------
MULLIKEN REDUCED ORBITAL CHARGES
--------------------------------
  0 O s       :     3.842412  s :     3.842412
      pz      :     1.360867  p :     4.505092
      px      :     1.220520
      py      :     1.923706
      dz2     :     0.003774  d :     0.033286
      dxz     :     0.011917
      dyz     :     0.003392
      dx2y2   :     0.009051
      dxy     :     0.005152
  1 H s       :     0.722044  s :     0.722044
      pz      :     0.026788  p :     0.087561
      px      :     0.026248
      py      :     0.034525
  2 H s       :     0.722044  s :     0.722044
      pz      :     0.026788  p :     0.087561
      px      :     0.026248
      py      :     0.034525


                     *******************************
                     * LOEWDIN POPULATION ANALYSIS *
                     *******************************

----------------------
LOEWDIN ATOMIC CHARGES
----------------------
   0 O :   -0.014192
   1 H :    0.007096
   2 H :    0.007096

-------------------------------
LOEWDIN REDUCED ORBITAL CHARGES
-------------------------------
  0 O s       :     3.368149  s :     3.368149
      pz      :     1.380915  p :     4.609022
      px      :     1.380418
      py      :     1.847689
      dz2     :     0.003377  d :     0.037021
      dxz     :     0.014656
      dyz     :     0.003378
      dx2y2   :     0.011804
      dxy     :     0.003806
  1 H s       :     0.732128  s :     0.732128
      pz      :     0.082804  p :     0.260776
      px      :     0.104758
      py      :     0.073214
  2 H s       :     0.732128  s :     0.732128
      pz      :     0.082804  p :     0.260776
      px      :     0.104758
      py      :     0.073214


                      *****************************
                      * MAYER POPULATION ANALYSIS *
                      *****************************

  NA   - Mulliken gross atomic population
  ZA   - Total nuclear charge
  QA   - Mulliken gross atomic charge
  VA   - Mayer's total valence
  BVA  - Mayer's bonded valence
  FA   - Mayer's free valence

  ATOM       NA         ZA         QA         VA         BVA        FA
  0 O      8.3808     8.0000    -0.3808     2.1599     1.8584     0.3015
  1 H      0.8096     1.0000     0.1904     1.0219     0.9678     0.0541
  2 H      0.8096     1.0000     0.1904     1.0219     0.9678     0.0541

  Mayer bond orders larger than 0.100000
B(  0-O ,  1-H ) :   0.9292 B(  0-O ,  2-H ) :   0.9292 


----------------------------------
MP2 DERIVATIVE INTEGRAL GENERATION
----------------------------------

Input SCF Electron Density              ... h2o.scfp
Input Correlated Electron Density       ... h2o.pmp2re
Input Energy Weighted Density           ... h2o.wmp2.tmp
Input Wavefunction Amplitudes           ... h2o.mp2tsaa.tmp

Nuclear repulsion gradient              ... done (  0.0 sec)
HCore & Overlap gradient  (SHARK)       ... done (  0.0 sec)
Analytic two-electron gradient terms    ... 
  Batch handling in the gradient evaluation:
  General contraction                   ... not used
  Memory available                      ... 4094.5 MB
  Memory per occupied orbital in Q2     ...    0.0 MB
  Memory per occupied orbital in Q3     ...    0.0 MB
  Total memory requirement per |i>      ...    0.0 MB
  Number of orbitals treated per batch  ...      4
  Number of batches to be done          ...      1
done (  0.0 sec)

---------------------------------------
MP2 TOTAL ENERGY:      -76.213937582 Eh
---------------------------------------

The final MP2 gradient
  0:   0.05832949   0.00000000   0.00000000
  1:  -0.02916474   0.00000000  -0.12785377
  2:  -0.02916474  -0.00000000   0.12785377

-----------------------------------
NORM OF THE MP2 GRADIENT:  0.194414
-----------------------------------

Maximum memory used throughout the entire MP2-calculation: 13.1 MB

-------------------------   --------------------
FINAL SINGLE POINT ENERGY       -76.213937581998
-------------------------   --------------------

------------------------------------------------------------------------------
                         ORCA GEOMETRY RELAXATION STEP
------------------------------------------------------------------------------

Reading the OPT-File                    .... done
Getting information on internals        .... done
Copying old internal coords+grads       .... done
Making the new internal coordinates     .... (2022 redundants) done
Validating the new internal coordinates .... (2022 redundants) done
Calculating the B-matrix                .... done
Calculating the G,G- and P matrices     .... done
Transforming gradient to internals      .... done
Projecting the internal gradient        .... done
Number of atoms                         ....   3
Number of internal coordinates          ....   3
Current Energy                          ....   -76.213937582 Eh
Current gradient norm                   ....     0.194413652 Eh/bohr
Maximum allowed component of the step   ....  0.300
Current trust radius                    ....  0.300
Evaluating the initial hessian          ....  (Almloef) done
Projecting the Hessian                  .... done
Forming the augmented Hessian           .... done
Diagonalizing the augmented Hessian     .... done
Last element of RFO vector              ....  0.924237369
Lowest eigenvalues of augmented Hessian:
 -0.082617554  0.392904182  0.622683214
Length of the computed step             ....  0.413117243
Warning: the length of the step is outside the trust region - taking restricted step instead
The input lambda is                     ....     0.340633
   iter:   5  x=    0.334039  g=372655.411264 f(x)=   943.443642
   iter:  10  x=    0.283800  g=  848.216416 f(x)=    16.395414
   iter:  15  x=   -0.060250  g=    2.259161 f(x)=     0.261188
   iter:  20  x=   -0.259986  g=    0.274636 f(x)=     0.000000
The output lambda is                    ....    -0.259986 (22 iterations)
The final length of the internal step   ....  0.300000000
Converting the step to Cartesian space:
 Initial RMS(Int)=    0.1732050808
Transforming coordinates:
 Iter   0:  RMS(Cart)=    0.1157959111 RMS(Int)=    0.1712284565
 Iter   5:  RMS(Cart)=    0.0000018221 RMS(Int)=    0.0000026851
done
Storing new coordinates                 .... done

                                .--------------------.
          ----------------------|Geometry convergence|-------------------------
          Item                value                   Tolerance       Converged
          ---------------------------------------------------------------------
          RMS gradient        0.1186779859            0.0000300000      NO
          MAX gradient        0.1554919855            0.0001000000      NO
          RMS step            0.1732050808            0.0006000000      NO
          MAX step            0.2584559248            0.0010000000      NO
          -------------------------------------------------------------------------
          ........................................................
          Max(Bonds)      0.0570      Max(Angles)   14.81
          Max(Dihed)        0.00      Max(Improp)    0.00
          ---------------------------------------------------------------------

The optimization has not yet converged - more geometry cycles are needed


    ---------------------------------------------------------------------------
                         Redundant Internal Coordinates
                            (Angstroem and degrees)

        Definition                    Value    dE/dq     Step     New-Value
    ----------------------------------------------------------------------------
     1. B(H   1,O   0)                0.9109 -0.095067  0.0570    0.9679   
     2. B(H   2,O   0)                0.9109 -0.095067  0.0570    0.9679   
     3. A(H   1,O   0,H   2)           67.23 -0.155492   14.81     82.04   
    ----------------------------------------------------------------------------

Geometry step timings:
Preparation and reading OPT file:      0.000 s ( 4.305 %)
Internal coordinates            :      0.000 s ( 4.892 %)
B/P matrices and projection     :      0.000 s (14.481 %)
Hessian update/contruction      :      0.000 s (16.634 %)
Making the step                 :      0.000 s (23.092 %)
Converting the step to Cartesian:      0.000 s ( 7.632 %)
Storing new data                :      0.000 s ( 5.479 %)
Checking convergence            :      0.000 s ( 7.828 %)
Final printing                  :      0.000 s (15.656 %)
Total time                      :      0.001 s

Time for energy+gradient        :      1.038 s
Time for complete geometry iter :      1.184 s

         *************************************************************
         *                GEOMETRY OPTIMIZATION CYCLE   2            *
         *************************************************************
---------------------------------
CARTESIAN COORDINATES (ANGSTROEM)
---------------------------------
  O      0.018873    0.000000   -0.000000
  H      0.749166    0.000000    0.635245
  H      0.749166    0.000000   -0.635245

----------------------------
CARTESIAN COORDINATES (A.U.)
----------------------------
  NO LB      ZA    FRAG     MASS         X           Y           Z
   0 O     8.0000    0    15.995    0.035665    0.000000   -0.000000
   1 H     1.0000    0     1.008    1.415718    0.000000    1.200439
   2 H     1.0000    0     1.008    1.415718    0.000000   -1.200439

--------------------------------
INTERNAL COORDINATES (ANGSTROEM)
--------------------------------
 O      0   0   0     0.000000000000     0.00000000     0.00000000
 H      1   0   0     0.967917036060     0.00000000     0.00000000
 H      1   2   0     0.967917036060    82.03672846     0.00000000

---------------------------
INTERNAL COORDINATES (A.U.)
---------------------------
 O      0   0   0     0.000000000000     0.00000000     0.00000000
 H      1   0   0     1.829098118510     0.00000000     0.00000000
 H      1   2   0     1.829098118510    82.03672846     0.00000000



           ************************************************************
           *        Program running with 4 parallel MPI-processes     *
           *              working on a common directory               *
           ************************************************************
------------------------------------------------------------------------------
                   ___                                                        
                  /   \      - P O W E R E D   B Y -                         
                 /     \                                                     
                 |  |  |   _    _      __       _____    __    __             
                 |  |  |  | |  | |    /  \     |  _  \  |  |  /  |          
                  \  \/   | |  | |   /    \    | | | |  |  | /  /          
                 / \  \   | |__| |  /  /\  \   | |_| |  |  |/  /          
                |  |  |   |  __  | /  /__\  \  |    /   |      \           
                |  |  |   | |  | | |   __   |  |    \   |  |\   \          
                \     /   | |  | | |  |  |  |  | |\  \  |  | \   \       
                 \___/    |_|  |_| |__|  |__|  |_| \__\ |__|  \__/        
                                                                              
                      - O R C A' S   B I G   F R I E N D -                    
                                      &                                       
                       - I N T E G R A L  F E E D E R -                       
                                                                              
 v1 FN, 2020, v2 2021, v3 2022-2024                                           
------------------------------------------------------------------------------


----------------------
SHARK INTEGRAL PACKAGE
----------------------

Number of atoms                             ...      3
Number of basis functions                   ...     30
Number of shells                            ...     16
Maximum angular momentum                    ...      2
Integral batch strategy                     ... SHARK/LIBINT Hybrid
RI-J (if used) integral strategy            ... SPLIT-RIJ (Revised 2003 algorithm where possible)
Printlevel                                  ...      1
Contraction scheme used                     ... SEGMENTED contraction
Prescreening option                         ... SCHWARTZ
   Thresh                                   ... 3.000e-16
   Tcut                                     ... 3.000e-18
   Tpresel                                  ... 3.000e-18 
Coulomb Range Separation                    ... NOT USED
Exchange Range Separation                   ... NOT USED
Multipole approximations                    ... NOT USED
Finite Nucleus Model                        ... NOT USED
CABS basis                                  ... NOT available
Auxiliary Coulomb fitting basis             ... NOT available
Auxiliary J/K fitting basis                 ... NOT available
Auxiliary Correlation fitting basis         ... NOT available
Auxiliary 'external' fitting basis          ... NOT available

Checking pre-screening integrals            ... done (  0.0 sec) Dimension = 16
   => SHARK Basis and OBASIS are compatible. Storing Pre-screening
Shell pair information
Shell pair cut-off parameter TPreSel        ...   3.0e-18
Total number of shell pairs                 ...       136
Shell pairs after pre-screening             ...       136
Total number of primitive shell pairs       ...       462
Primitive shell pairs kept                  ...       447
          la=0 lb=0:     55 shell pairs
          la=1 lb=0:     50 shell pairs
          la=1 lb=1:     15 shell pairs
          la=2 lb=0:     10 shell pairs
          la=2 lb=1:      5 shell pairs
          la=2 lb=2:      1 shell pairs

Checking whether 4 symmetric matrices of dimension 30 fit in memory
:Max Core in MB      =   4096.00
 MB in use           =      1.34
 MB left             =   4094.66
 MB needed           =      0.01
 Data fit in memory  = YES
Calculating Nuclear repulsion               ... done (  0.0 sec) ENN=      9.163994818720 Eh

Diagonalization of the overlap matrix:
Smallest eigenvalue                        ... 1.870e-02
Time for diagonalization                   ...    0.000 sec
Threshold for overlap eigenvalues          ... 1.000e-07
Number of eigenvalues below threshold      ... 0
Time for construction of square roots      ...    0.000 sec
Total time needed                          ...    0.001 sec

-------------------
DFT GRID GENERATION
-------------------

General Integration Accuracy     IntAcc      ... 4.388
Radial Grid Type                 RadialGrid  ... OptM3 with GC (2021)
Angular Grid (max. ang.)         AngularGrid ... 4 (Lebedev-302)
Angular grid pruning method      GridPruning ... 4 (adaptive)
Weight generation scheme         WeightScheme... mBecke (2022)
Basis function cutoff            BFCut       ... 3.0000e-16
Integration weight cutoff        WCut        ... 1.0000e-14
Partially contracted basis set               ... off
Rotationally invariant grid construction     ... off
Angular grids for H and He will be reduced by one unit

Total number of grid points                  ...    12764
Total number of batches                      ...      202
Average number of points per batch           ...       63
Average number of grid points per atom       ...     4255
Grids setup in   0.0 sec
Initializing property integral containers    ... done (  0.0 sec)

SHARK setup successfully completed in   0.1 seconds

Maximum memory used throughout the entire STARTUP-calculation: 7.7 MB


           ************************************************************
           *        Program running with 4 parallel MPI-processes     *
           *              working on a common directory               *
           ************************************************************
Occupation numbers will be reassigned to an Aufbau configuration
             **** ENERGY FILE WAS UPDATED (h2o.en.tmp) ****
Finished Guess after   0.0 sec
Maximum memory used throughout the entire GUESS-calculation: 3.5 MB


           ************************************************************
           *        Program running with 4 parallel MPI-processes     *
           *              working on a common directory               *
           ************************************************************
----------------------------------------D-I-I-S--------------------------------------------
Iteration    Energy (Eh)           Delta-E    RMSDP     MaxDP     DIISErr   Damp  Time(sec)
-------------------------------------------------------------------------------------------
               ***  Starting incremental Fock matrix formation  ***
    1    -76.0234233895206444     0.00e+00  2.28e-03  1.07e-02  6.69e-02  0.700   0.0
    2    -76.0252691662755353    -1.85e-03  2.09e-03  9.88e-03  5.14e-02  0.700   0.0
                               ***Turning on AO-DIIS***
    3    -76.0266966738316370    -1.43e-03  2.04e-03  9.79e-03  3.87e-02  0.700   0.0
    4    -76.0277684537312268    -1.07e-03  5.45e-03  2.56e-02  2.78e-02  0.000   0.0
                              *** Initializing SOSCF ***
---------------------------------------S-O-S-C-F--------------------------------------
Iteration    Energy (Eh)           Delta-E    RMSDP     MaxDP     MaxGrad    Time(sec)
--------------------------------------------------------------------------------------
    5    -76.0306224289577841    -2.85e-03  5.13e-04  1.98e-03  1.45e-03     0.0
               *** Restarting incremental Fock matrix formation ***
    6    -76.0306280599123880    -5.63e-06  2.07e-04  8.27e-04  3.67e-04     0.0
    7    -76.0306288203515663    -7.60e-07  8.52e-05  3.54e-04  1.15e-04     0.0
    8    -76.0306289020370514    -8.17e-08  8.97e-06  4.60e-05  3.87e-05     0.0
    9    -76.0306289056995723    -3.66e-09  4.30e-06  2.07e-05  1.20e-05     0.0
   10    -76.0306289062971814    -5.98e-10  5.88e-07  2.02e-06  1.78e-06     0.0
   11    -76.0306289063193219    -2.21e-11  2.46e-07  1.15e-06  6.51e-07     0.0
   12    -76.0306289063217378    -2.42e-12  2.44e-08  1.05e-07  7.66e-08     0.0
   13    -76.0306289063218088    -7.11e-14  1.36e-08  4.70e-08  2.51e-08     0.0
   14    -76.0306289063217804     2.84e-14  1.42e-09  7.97e-09  6.56e-09     0.0
   15    -76.0306289063217946    -1.42e-14  6.77e-10  2.58e-09  1.56e-09     0.0
   16    -76.0306289063217946     0.00e+00  0.00e+00  0.00e+00  9.57e-10     0.0
                          ***Energy convergence achieved***
                           ***RMSP convergence achieved***
                           ***MAXP convergence achieved***
                       ***Gradient convergence achieved***
                    ***Orbital Rotation convergence achieved***

               *****************************************************
               *                     SUCCESS                       *
               *           SCF CONVERGED AFTER  16 CYCLES          *
               *****************************************************

             **** ENERGY FILE WAS UPDATED (h2o.en.tmp) ****

----------------
TOTAL SCF ENERGY
----------------

Total Energy       :        -76.03062890632179 Eh           -2068.89859 eV

Components:
Nuclear Repulsion  :          9.16399481871953 Eh             249.36498 eV
Electronic Energy  :        -85.19462372504132 Eh           -2318.26357 eV
One Electron Energy:       -123.00992178183286 Eh           -3347.27014 eV
Two Electron Energy:         37.81529805679153 Eh            1029.00657 eV

Virial components:
Potential Energy   :       -152.08046045419951 Eh           -4138.31972 eV
Kinetic Energy     :         76.04983154787772 Eh            2069.42112 eV
Virial Ratio       :          1.99974749922301

---------------
SCF CONVERGENCE
---------------

  Last Energy change         ...    0.0000e+00  Tolerance :   1.0000e-14
  Last MAX-Density change    ...    0.0000e+00  Tolerance :   1.0000e-14
  Last RMS-Density change    ...    0.0000e+00  Tolerance :   1.0000e-14
  Last DIIS Error            ...    1.4504e-03  Tolerance :   1.0000e-14
  Last Orbital Gradient      ...    9.5655e-10  Tolerance :   1.0000e-09
  Last Orbital Rotation      ...    0.0000e+00  Tolerance :   1.0000e-09


Total SCF time: 0 days 0 hours 0 min 0 sec 
Finished LeanSCF after   0.2 sec

Maximum memory used throughout the entire LEANSCF-calculation: 7.1 MB


           ************************************************************
           *        Program running with 4 parallel MPI-processes     *
           *              working on a common directory               *
           ************************************************************

------------------------------------------------------------------------------
                                ORCA  MP2 
------------------------------------------------------------------------------

Freezing NCore=2 chemical core electrons
MP2 will be done in the AO integral direct mode
The Q1-step will be done using symmetric double matrices
Dimension of the basis                    ...   30
Memory devoted for MP2                    ... 4096 MB   
Memory needed for all in one shot         ...    1 MB
Number of MOs that can be treated together... 38484      
MP2 density construction                  ... relaxed
The MP2 gradient is requested => amplitudes will be stored on disk
Total number of MOs              ...    4
Number of MOs treated per batch  ...    1 
Number of batches necessary      ...    1 
OPERATORS   0/  0 PASS   0
OPERATORS   0/  0 PASS   2
OPERATORS   0/  0 PASS   3
OPERATORS   0/  0 PASS   1
-----------------------------------------------
 MP2 CORRELATION ENERGY   :     -0.221759322 Eh
-----------------------------------------------


---------------------
MP2 DENSITY FORMATION
---------------------

Completing the external part of the density      ... done
Storing the unrelaxed density                    ... done

Calculating G(D)                                 ... done
Completing the Lagrangian                        ... done
Solving the Z-vector equations                   ... 
-------------------
SHARK CP-SCF DRIVER
-------------------

Dimension of the orbital basis          ...     30
Dimension of the CPSCF-problem          ...    125
Number of operators                     ...      1
Max. number of iterations               ...    128
Convergence Tolerance                   ... 3.0e-06
Number of perturbations                 ...      1
Perturbation type                       ... REAL

----------------------------
POPLE LINEAR EQUATION SOLVER
----------------------------

  ITERATION   0:   ||err||_max =   1.9060e-02 (   0.0 sec)
  ITERATION   1:   ||err||_max =   5.6076e-03 (   0.0 sec)
  ITERATION   2:   ||err||_max =   1.1733e-03 (   0.0 sec)
  ITERATION   3:   ||err||_max =   2.6158e-04 (   0.0 sec)
  ITERATION   4:   ||err||_max =   4.7967e-05 (   0.0 sec)
  ITERATION   5:   ||err||_max =   8.6837e-06 (   0.0 sec)
  ITERATION   6:   ||err||_max =   1.1357e-06 (   0.0 sec)
                                                 ... done
Finalizing the relaxed density                   ... done
Transforming P to the AO basis                   ... done
Storing the relaxed density                      ... done

------------------------------------
ENERGY WEIGHTED DENSITY FINALIZATION
------------------------------------

Gathering the parts of the W-matrix              ...                                                      done
Forming the Z-density                            ... done
Transforming Z to the AO basis                   ... done
Calculating G(Z)                                 ... done
Finalizing the W-matrix                          ...                                                      done
Transforming W to the AO basis and storing       ... done

----------------------------------
MP2 DERIVATIVE INTEGRAL GENERATION
----------------------------------

Input SCF Electron Density              ... h2o.scfp
Input Correlated Electron Density       ... h2o.pmp2re
Input Energy Weighted Density           ... h2o.wmp2.tmp
Input Wavefunction Amplitudes           ... h2o.mp2tsaa.tmp

Nuclear repulsion gradient              ... done (  0.0 sec)
HCore & Overlap gradient  (SHARK)       ... done (  0.0 sec)
Analytic two-electron gradient terms    ... 
  Batch handling in the gradient evaluation:
  General contraction                   ... not used
  Memory available                      ... 4094.4 MB
  Memory per occupied orbital in Q2     ...    0.0 MB
  Memory per occupied orbital in Q3     ...    0.0 MB
  Total memory requirement per |i>      ...    0.0 MB
  Number of orbitals treated per batch  ...      4
  Number of batches to be done          ...      1
done (  0.0 sec)

---------------------------------------
MP2 TOTAL ENERGY:      -76.252388228 Eh
---------------------------------------

The final MP2 gradient
  0:  -0.04168615   0.00000000  -0.00000000
  1:   0.02084307  -0.00000000  -0.03202519
  2:   0.02084307   0.00000000   0.03202519

-----------------------------------
NORM OF THE MP2 GRADIENT:  0.068248
-----------------------------------

Maximum memory used throughout the entire MP2-calculation: 13.2 MB

-------------------------   --------------------
FINAL SINGLE POINT ENERGY       -76.252388228156
-------------------------   --------------------

------------------------------------------------------------------------------
                         ORCA GEOMETRY RELAXATION STEP
------------------------------------------------------------------------------

Reading the OPT-File                    .... done
Getting information on internals        .... done
Copying old internal coords+grads       .... done
Making the new internal coordinates     .... (2022 redundants) done
Validating the new internal coordinates .... (2022 redundants) done
Calculating the B-matrix                .... done
Calculating the G,G- and P matrices     .... done
Transforming gradient to internals      .... done
Projecting the internal gradient        .... done
Number of atoms                         ....   3
Number of internal coordinates          ....   3
Current Energy                          ....   -76.252388228 Eh
Current gradient norm                   ....     0.068248283 Eh/bohr
Maximum allowed component of the step   ....  0.300
Current trust radius                    ....  0.300
Updating the Hessian (BFGS)             .... done
Forming the augmented Hessian           .... done
Diagonalizing the augmented Hessian     .... done
Last element of RFO vector              ....  0.978161158
Lowest eigenvalues of augmented Hessian:
 -0.014701382  0.322477856  0.622683214
Length of the computed step             ....  0.212488398
The final length of the internal step   ....  0.212488398
Converting the step to Cartesian space:
 Initial RMS(Int)=    0.1226802337
Transforming coordinates:
 Iter   0:  RMS(Cart)=    0.0772339314 RMS(Int)=    0.1225167265
 Iter   5:  RMS(Cart)=    0.0000004178 RMS(Int)=    0.0000010413
done
Storing new coordinates                 .... done
The predicted energy change is          ....    -0.007682585
Previously predicted energy change      ....    -0.042032459
Actually observed energy change         ....    -0.038450646
Ratio of predicted to observed change   ....     0.914784592
New trust radius                        ....     0.450000000

                                .--------------------.
          ----------------------|Geometry convergence|-------------------------
          Item                value                   Tolerance       Converged
          ---------------------------------------------------------------------
          Energy change      -0.0384506462            0.0000010000      NO
          RMS gradient        0.0401955505            0.0000300000      NO
          MAX gradient        0.0692173003            0.0001000000      NO
          RMS step            0.1226802337            0.0006000000      NO
          MAX step            0.2124866917            0.0010000000      NO
          -------------------------------------------------------------------------
          ........................................................
          Max(Bonds)      0.0003      Max(Angles)   12.17
          Max(Dihed)        0.00      Max(Improp)    0.00
          ---------------------------------------------------------------------

The optimization has not yet converged - more geometry cycles are needed


    ---------------------------------------------------------------------------
                         Redundant Internal Coordinates
                            (Angstroem and degrees)

        Definition                    Value    dE/dq     Step     New-Value
    ----------------------------------------------------------------------------
     1. B(H   1,O   0)                0.9679 -0.005292 -0.0003    0.9676   
     2. B(H   2,O   0)                0.9679 -0.005292 -0.0003    0.9676   
     3. A(H   1,O   0,H   2)           82.04 -0.069217   12.17     94.21   
    ----------------------------------------------------------------------------

Geometry step timings:
Preparation and reading OPT file:      0.000 s ( 3.951 %)
Internal coordinates            :      0.000 s ( 5.586 %)
B/P matrices and projection     :      0.000 s (14.441 %)
Hessian update/contruction      :      0.000 s (26.158 %)
Making the step                 :      0.000 s ( 9.809 %)
Converting the step to Cartesian:      0.000 s ( 6.267 %)
Storing new data                :      0.000 s ( 5.177 %)
Checking convergence            :      0.000 s (12.125 %)
Final printing                  :      0.000 s (16.349 %)
Total time                      :      0.001 s

Time for energy+gradient        :      0.972 s
Time for complete geometry iter :      1.118 s

         *************************************************************
         *                GEOMETRY OPTIMIZATION CYCLE   3            *
         *************************************************************
---------------------------------
CARTESIAN COORDINATES (ANGSTROEM)
---------------------------------
  O      0.066672    0.000000    0.000000
  H      0.725266    0.000000    0.708872
  H      0.725266    0.000000   -0.708872

----------------------------
CARTESIAN COORDINATES (A.U.)
----------------------------
  NO LB      ZA    FRAG     MASS         X           Y           Z
   0 O     8.0000    0    15.995    0.125991    0.000000    0.000000
   1 H     1.0000    0     1.008    1.370554    0.000000    1.339575
   2 H     1.0000    0     1.008    1.370554    0.000000   -1.339575

--------------------------------
INTERNAL COORDINATES (ANGSTROEM)
--------------------------------
 O      0   0   0     0.000000000000     0.00000000     0.00000000
 H      1   0   0     0.967598406550     0.00000000     0.00000000
 H      1   2   0     0.967598406550    94.21131944     0.00000000

---------------------------
INTERNAL COORDINATES (A.U.)
---------------------------
 O      0   0   0     0.000000000000     0.00000000     0.00000000
 H      1   0   0     1.828495995998     0.00000000     0.00000000
 H      1   2   0     1.828495995998    94.21131944     0.00000000



           ************************************************************
           *        Program running with 4 parallel MPI-processes     *
           *              working on a common directory               *
           ************************************************************
------------------------------------------------------------------------------
                   ___                                                        
                  /   \      - P O W E R E D   B Y -                         
                 /     \                                                     
                 |  |  |   _    _      __       _____    __    __             
                 |  |  |  | |  | |    /  \     |  _  \  |  |  /  |          
                  \  \/   | |  | |   /    \    | | | |  |  | /  /          
                 / \  \   | |__| |  /  /\  \   | |_| |  |  |/  /          
                |  |  |   |  __  | /  /__\  \  |    /   |      \           
                |  |  |   | |  | | |   __   |  |    \   |  |\   \          
                \     /   | |  | | |  |  |  |  | |\  \  |  | \   \       
                 \___/    |_|  |_| |__|  |__|  |_| \__\ |__|  \__/        
                                                                              
                      - O R C A' S   B I G   F R I E N D -                    
                                      &                                       
                       - I N T E G R A L  F E E D E R -                       
[...]

Calculating G(D)                                 ... done
Completing the Lagrangian                        ... done
Solving the Z-vector equations                   ... 
-------------------
SHARK CP-SCF DRIVER
-------------------

Dimension of the orbital basis          ...     30
Dimension of the CPSCF-problem          ...    125
Number of operators                     ...      1
Max. number of iterations               ...    128
Convergence Tolerance                   ... 3.0e-06
Number of perturbations                 ...      1
Perturbation type                       ... REAL

----------------------------
POPLE LINEAR EQUATION SOLVER
----------------------------

  ITERATION   0:   ||err||_max =   1.8971e-02 (   0.0 sec)
  ITERATION   1:   ||err||_max =   5.3683e-03 (   0.0 sec)
  ITERATION   2:   ||err||_max =   1.0704e-03 (   0.0 sec)
  ITERATION   3:   ||err||_max =   1.5267e-04 (   0.0 sec)
  ITERATION   4:   ||err||_max =   3.7016e-05 (   0.0 sec)
  ITERATION   5:   ||err||_max =   6.9865e-06 (   0.0 sec)
  ITERATION   6:   ||err||_max =   7.0405e-07 (   0.0 sec)
                                                 ... done
Finalizing the relaxed density                   ... done
Transforming P to the AO basis                   ... done
Storing the relaxed density                      ... done

------------------------------------
ENERGY WEIGHTED DENSITY FINALIZATION
------------------------------------

Gathering the parts of the W-matrix              ...                                                      done
Forming the Z-density                            ... done
Transforming Z to the AO basis                   ... done
Calculating G(Z)                                 ... done
Finalizing the W-matrix                          ...                                                      done
Transforming W to the AO basis and storing       ... done

                *********************************************
                * UNRELAXED MP2 DENSITY POPULATION ANALYSIS *
                *********************************************

------------------------------------------------------------------------------
                           ORCA POPULATION ANALYSIS
------------------------------------------------------------------------------
Input electron density              ... h2o.pmp2ur
BaseName (.gbw .S,...)              ... h2o

                    ********************************
                    * MULLIKEN POPULATION ANALYSIS *
                    ********************************

-----------------------
MULLIKEN ATOMIC CHARGES
-----------------------
   0 O :   -0.484270
   1 H :    0.242135
   2 H :    0.242135
Sum of atomic charges:   -0.0000000

--------------------------------
MULLIKEN REDUCED ORBITAL CHARGES
--------------------------------
  0 O s       :     3.780170  s :     3.780170
      pz      :     1.207158  p :     4.675631
      px      :     1.521142
      py      :     1.947330
      dz2     :     0.003311  d :     0.028470
      dxz     :     0.011801
      dyz     :     0.003417
      dx2y2   :     0.005615
      dxy     :     0.004326
  1 H s       :     0.684772  s :     0.684772
      pz      :     0.027497  p :     0.073093
      px      :     0.022626
      py      :     0.022970
  2 H s       :     0.684772  s :     0.684772
      pz      :     0.027497  p :     0.073093
      px      :     0.022626
      py      :     0.022970


                     *******************************
                     * LOEWDIN POPULATION ANALYSIS *
                     *******************************

----------------------
LOEWDIN ATOMIC CHARGES
----------------------
   0 O :   -0.067051
   1 H :    0.033526
   2 H :    0.033526

-------------------------------
LOEWDIN REDUCED ORBITAL CHARGES
-------------------------------
  0 O s       :     3.362630  s :     3.362630
      pz      :     1.225063  p :     4.672599
      px      :     1.569328
      py      :     1.878208
      dz2     :     0.004103  d :     0.031822
      dxz     :     0.014898
      dyz     :     0.003377
      dx2y2   :     0.005841
      dxy     :     0.003604
  1 H s       :     0.767606  s :     0.767606
      pz      :     0.069189  p :     0.198868
      px      :     0.071768
      py      :     0.057911
  2 H s       :     0.767606  s :     0.767606
      pz      :     0.069189  p :     0.198868
      px      :     0.071768
      py      :     0.057911


                      *****************************
                      * MAYER POPULATION ANALYSIS *
                      *****************************

  NA   - Mulliken gross atomic population
  ZA   - Total nuclear charge
  QA   - Mulliken gross atomic charge
  VA   - Mayer's total valence
  BVA  - Mayer's bonded valence
  FA   - Mayer's free valence

  ATOM       NA         ZA         QA         VA         BVA        FA
  0 O      8.4843     8.0000    -0.4843     2.1543     1.8429     0.3113
  1 H      0.7579     1.0000     0.2421     0.9779     0.9273     0.0506
  2 H      0.7579     1.0000     0.2421     0.9779     0.9273     0.0506

  Mayer bond orders larger than 0.100000
B(  0-O ,  1-H ) :   0.9215 B(  0-O ,  2-H ) :   0.9215 


                *******************************************
                * RELAXED MP2 DENSITY POPULATION ANALYSIS *
                *******************************************

------------------------------------------------------------------------------
                           ORCA POPULATION ANALYSIS
------------------------------------------------------------------------------
Input electron density              ... h2o.pmp2re
BaseName (.gbw .S,...)              ... h2o

                    ********************************
                    * MULLIKEN POPULATION ANALYSIS *
                    ********************************

-----------------------
MULLIKEN ATOMIC CHARGES
-----------------------
   0 O :   -0.466203
   1 H :    0.233101
   2 H :    0.233101
Sum of atomic charges:   -0.0000000

--------------------------------
MULLIKEN REDUCED ORBITAL CHARGES
--------------------------------
  0 O s       :     3.783010  s :     3.783010
      pz      :     1.202446  p :     4.655354
      px      :     1.508960
      py      :     1.943948
      dz2     :     0.003314  d :     0.027839
      dxz     :     0.011169
      dyz     :     0.003417
      dx2y2   :     0.005566
      dxy     :     0.004373
  1 H s       :     0.694384  s :     0.694384
      pz      :     0.025652  p :     0.072514
      px      :     0.022225
      py      :     0.024637
  2 H s       :     0.694384  s :     0.694384
      pz      :     0.025652  p :     0.072514
      px      :     0.022225
      py      :     0.024637


                     *******************************
                     * LOEWDIN POPULATION ANALYSIS *
                     *******************************

----------------------
LOEWDIN ATOMIC CHARGES
----------------------
   0 O :   -0.060228
   1 H :    0.030114
   2 H :    0.030114

-------------------------------
LOEWDIN REDUCED ORBITAL CHARGES
-------------------------------
  0 O s       :     3.364022  s :     3.364022
      pz      :     1.225735  p :     4.665042
      px      :     1.564245
      py      :     1.875063
      dz2     :     0.004009  d :     0.031164
      dxz     :     0.014296
      dyz     :     0.003377
      dx2y2   :     0.005850
      dxy     :     0.003632
  1 H s       :     0.770968  s :     0.770968
      pz      :     0.067415  p :     0.198918
      px      :     0.072032
      py      :     0.059471
  2 H s       :     0.770968  s :     0.770968
      pz      :     0.067415  p :     0.198918
      px      :     0.072032
      py      :     0.059471


                      *****************************
                      * MAYER POPULATION ANALYSIS *
                      *****************************

  NA   - Mulliken gross atomic population
  ZA   - Total nuclear charge
  QA   - Mulliken gross atomic charge
  VA   - Mayer's total valence
  BVA  - Mayer's bonded valence
  FA   - Mayer's free valence

  ATOM       NA         ZA         QA         VA         BVA        FA
  0 O      8.4662     8.0000    -0.4662     2.1668     1.8576     0.3092
  1 H      0.7669     1.0000     0.2331     0.9850     0.9346     0.0505
  2 H      0.7669     1.0000     0.2331     0.9850     0.9346     0.0505

  Mayer bond orders larger than 0.100000
B(  0-O ,  1-H ) :   0.9288 B(  0-O ,  2-H ) :   0.9288 


----------------------------------
MP2 DERIVATIVE INTEGRAL GENERATION
----------------------------------

Input SCF Electron Density              ... h2o.scfp
Input Correlated Electron Density       ... h2o.pmp2re
Input Energy Weighted Density           ... h2o.wmp2.tmp
Input Wavefunction Amplitudes           ... h2o.mp2tsaa.tmp

Nuclear repulsion gradient              ... done (  0.0 sec)
HCore & Overlap gradient  (SHARK)       ... done (  0.0 sec)
Analytic two-electron gradient terms    ... 
  Batch handling in the gradient evaluation:
  General contraction                   ... not used
  Memory available                      ... 4094.2 MB
  Memory per occupied orbital in Q2     ...    0.0 MB
  Memory per occupied orbital in Q3     ...    0.0 MB
  Total memory requirement per |i>      ...    0.0 MB
  Number of orbitals treated per batch  ...      4
  Number of batches to be done          ...      1
done (  0.0 sec)

---------------------------------------
MP2 TOTAL ENERGY:      -76.263971890 Eh
---------------------------------------

The final MP2 gradient
  0:  -0.00000581  -0.00000000   0.00000000
  1:   0.00000291  -0.00000000   0.00001013
  2:   0.00000291   0.00000000  -0.00001013

-----------------------------------
NORM OF THE MP2 GRADIENT:  0.000016
-----------------------------------

Maximum memory used throughout the entire MP2-calculation: 13.4 MB

-------------------------   --------------------
FINAL SINGLE POINT ENERGY       -76.263971890438
-------------------------   --------------------

                                *** OPTIMIZATION RUN DONE ***



           ************************************************************
           *        Program running with 4 parallel MPI-processes     *
           *              working on a common directory               *
           ************************************************************

------------------------------------------------------------------------------
                              ORCA PROPERTY CALCULATIONS
------------------------------------------------------------------------------

GBWName                                 ... h2o.gbw
Number of atoms                         ...      3
Number of basis functions               ...     30
Max core memory                         ...   4096 MB

Electric properties:
Dipole moment                           ... YES
Quadrupole moment                       ...  NO
Static polarizability (Dipole/Dipole)   ...  NO
Static polarizability (Dipole/Quad.)    ...  NO
Static polarizability (Quad./Quad.)     ...  NO
Static polarizability (Velocity)        ...  NO
Static hyperpolarizability              ...  NO

Atomic electric properties:
Dipole moment                           ...  NO
Quadrupole moment                       ...  NO
Static polarizability                   ...  NO

Choice of electric origin               ... Center of mass
Position of electric origin             ...     0.326805     0.000000     0.000000

General magnetic properties:
Magnetizability                         ...  NO

EPR properties:
g-Tensor (aka g-matrix)                 ...  NO
Zero-Field splitting spin-orbit         ...  NO
Zero-field splitting spin-spin          ...  NO
Hyperfine couplings                     ...  NO (   0 nuclei)
Quadrupole couplings                    ...  NO (   0 nuclei)
Contact density                         ...  NO (   0 nuclei)

NMR properties:
Chemical shifts                         ...  NO (   0 nuclei)
Spin-rotation constants                 ...  NO (   0 nuclei)
Spin-spin couplings                     ...  NO (   0 nuclei,    0 pairs)

Choice of magnetic origin               ... GIAO
Position of magnetic origin             ...     0.000000     0.000000     0.000000

Properties with geometric perturbations:
SCF Hessian                             ...  NO
IR spectrum                             ...  NO
VCD spectrum                            ...  NO
X-ray spectroscopy properties:
SCF XES/XAS/RIXS spectra                ...  NO

SCF SOC stabilization energy            ...  NO
Diagonal Born-Oppenheimer correction    ...  NO

-------------
DIPOLE MOMENT
-------------

Method             : SCF
Type of density    : Electron Density
Multiplicity       :   1
Irrep              :   0
Energy             :   -76.0462527834645101 Eh
Basis              : AO
                                X                 Y                 Z
Electronic contribution:     -0.134312818      -0.000000000       0.000000000
Nuclear contribution   :      0.998578696       0.000000000       0.000000000
                        -----------------------------------------
Total Dipole Moment    :      0.864265878      -0.000000000       0.000000000
                        -----------------------------------------
Magnitude (a.u.)       :      0.864265878
Magnitude (Debye)      :      2.196789280



--------------------
Rotational spectrum 
--------------------
 
Rotational constants in cm-1:            26.167673            15.000560             9.534773 
Rotational constants in MHz :        784487.097638        449705.474959        285845.297302 

Dipole components along the rotational axes: 
x,y,z [a.u.] :    -0.000000     0.864266     0.000000 
x,y,z [Debye]:    -0.000000     2.196789     0.000000 

 

-------------
DIPOLE MOMENT
-------------

Method             : MP2
Type of density    : Electron Density
Multiplicity       :   1
Level              : Unrelaxed density
Irrep              :   0
Energy             :     0.0000000000000000 Eh
Basis              : AO
                                X                 Y                 Z
Electronic contribution:     -0.145758360      -0.000000000       0.000000000
Nuclear contribution   :      0.998578696       0.000000000       0.000000000
                        -----------------------------------------
Total Dipole Moment    :      0.852820335      -0.000000000       0.000000000
                        -----------------------------------------
Magnitude (a.u.)       :      0.852820335
Magnitude (Debye)      :      2.167697023



--------------------
Rotational spectrum 
--------------------
 
Rotational constants in cm-1:            26.167673            15.000560             9.534773 
Rotational constants in MHz :        784487.097638        449705.474959        285845.297302 

Dipole components along the rotational axes: 
x,y,z [a.u.] :    -0.000000     0.852820     0.000000 
x,y,z [Debye]:    -0.000000     2.167697     0.000000 

 

-------------
DIPOLE MOMENT
-------------

Method             : MP2
Type of density    : Electron Density
Multiplicity       :   1
Level              : Relaxed density
Irrep              :   0
Energy             :     0.0000000000000000 Eh
Basis              : AO
                                X                 Y                 Z
Electronic contribution:     -0.172118139      -0.000000000       0.000000000
Nuclear contribution   :      0.998578696       0.000000000       0.000000000
                        -----------------------------------------
Total Dipole Moment    :      0.826460556      -0.000000000       0.000000000
                        -----------------------------------------
Magnitude (a.u.)       :      0.826460556
Magnitude (Debye)      :      2.100695789



--------------------
Rotational spectrum 
--------------------
 
Rotational constants in cm-1:            26.167673            15.000560             9.534773 
Rotational constants in MHz :        784487.097638        449705.474959        285845.297302 

Dipole components along the rotational axes: 
x,y,z [a.u.] :    -0.000000     0.826461     0.000000 
x,y,z [Debye]:    -0.000000     2.100696     0.000000 

 

Dipole moment calculation done in   0.0 sec 

Maximum memory used throughout the entire PROP-calculation: 1.7 MB

--------------------------------
SUGGESTED CITATIONS FOR THIS RUN
--------------------------------

Below you find a list of papers that are relevant to this ORCA run
We neither can nor want to force you to cite these papers, but we appreciate if you do
You receive ORCA, which is the product of decades of hard work by many enthusiastic individuals, for free
The only thing we kindly ask in return is that you cite our papers,
We deeply appreciate it, if you show your appreciation for ORCA by not just citing the generic ORCA reference.

Please note that relegating all ORCA citations to the supporting information does *not* help us.
SI sections are not indexed - citations you put there will not count into any citation statistics
But we need these citations in order to attract the funding resources that allow us to do what we are doing

Therefore, if you are a happy ORCA user, please consider citing a few of the papers listed below in the main body of your paper

In addition to the list printed below, the program has created the file h2o.bibtex that contains the list in bibtex format
You can import this file easily into all common literature databanks and citation aid programs


List of essential papers. We consider these as the minimum necessary citations

  1. Neese, F.
     Software update: the ORCA program system, version 6.0
     WIRES Comput. Molec. Sci. 2025 15(1), e70019
     doi.org/10.1002/wcms.7019

List of papers to cite with high priority. The work reported in these papers was absolutely
necessary for this run to complete.
Our perspective: the developers of density functionals and basis sets usually get cited in chemistry papers
Good! But without the algorithms to do something with them, the functionals or basis sets would not do anything.
Hence, in our opinion, the algorithm design and method developments papers are equally worthy of getting cited

  1. Neese, F.
     The SHARK Integral Generation and Digestion System
     J. Comp. Chem. 2022 44(3), 381
     doi.org/10.1002/jcc.26942

List of suggested additional citations. These are papers that are important in the 'surrounding' of 
of this run, or papers that preceded the highly important papers. If you like your results we are grateful for a citation.

  1. Neese, F.
     The ORCA program system
     WIRES Comput. Molec. Sci. 2012 2(1), 73-78
     doi.org/10.1002/wcms.81
  2. Neese, F.
     Software update: the ORCA program system, version 4.0
     WIRES Comput. Molec. Sci. 2018 8(1), 1-6
     doi.org/10.1002/wcms.1327
  3. Neese, F.; Wennmohs, F.; Becker, U.; Riplinger, C.
     The ORCA quantum chemistry program package
     J. Chem. Phys. 2020 152(22), 224108
     doi.org/10.1063/5.0004608
  4. Neese, F.
     Software update: The ORCA program system—Version 5.0
     WIRES Comput. Molec. Sci. 2022 12(1), e1606
     doi.org/10.1002/wcms.1606

List of optional additional citations

  1. Neese, F.
     Approximate second-order SCF convergence for spin unrestricted wavefunctions
     Chem. Phys. Lett. 2000 325(1-3), 93-98
     doi.org/10.1016/s0009-2614(00)00662-x

Timings for individual modules:

Sum of individual times          ...        7.430 sec (=   0.124 min)
Startup calculation              ...        1.512 sec (=   0.025 min)  20.3 %
SCF iterations                   ...        3.627 sec (=   0.060 min)  48.8 %
Property calculations            ...        0.172 sec (=   0.003 min)   2.3 %
MP2 module                       ...        2.111 sec (=   0.035 min)  28.4 %
Geometry relaxation              ...        0.008 sec (=   0.000 min)   0.1 %
                             ****ORCA TERMINATED NORMALLY****
TOTAL RUN TIME: 0 days 0 hours 0 minutes 8 seconds 520 msec
