
                                 *****************
                                 * O   R   C   A *
                                 *****************

                                            #,                                       
                                            ###                                      
                                            ####                                     
                                            #####                                    
                                            ######                                   
                                           ########,                                 
                                     ,,################,,,,,                         
                               ,,#################################,,                 
                          ,,##########################################,,             
                       ,#########################################, ''#####,          
                    ,#############################################,,   '####,        
                  ,##################################################,,,,####,       
                ,###########''''           ''''###############################       
              ,#####''   ,,,,##########,,,,          '''####'''          '####       
            ,##' ,,,,###########################,,,                        '##       
           ' ,,###''''                  '''############,,,                           
         ,,##''                                '''############,,,,        ,,,,,,###''
      ,#''                                            '''#######################'''  
     '                                                          ''''####''''         
             ,#######,   #######,   ,#######,      ##                                
            ,#'     '#,  ##    ##  ,#'     '#,    #''#        ,####,    ,#,          
            ##       ##  ##   ,#'  ##            #'  '#       #'       ,# #          
            ##       ##  #######   ##           ,######,      #####,      #          
            '#,     ,#'  ##    ##  '#,     ,#' ,#      #,     #,   #      #          
             '#######'   ##     ##  '#######'  #'      '#     '####' #    #          



                #########################################################
                #                        -***-                          #
                #          Department of theory and spectroscopy        #
                #                                                       #
                #                      Frank Neese                      #
                #                                                       #
                #     Directorship, Architecture, Infrastructure        #
                #                    SHARK, DRIVERS                     #
                #        Core code/Algorithms in most modules           #
                #                                                       #
                #        Max Planck Institute fuer Kohlenforschung      #
                #                Kaiser Wilhelm Platz 1                 #
                #                 D-45470 Muelheim/Ruhr                 #
                #                      Germany                          #
                #                                                       #
                #                  All rights reserved                  #
                #                        -***-                          #
                #########################################################


                         Program Version 6.1.0  -  RELEASE   -
                                (GIT: $679e74b$)
                          ($2025-06-10 18:02:51 +0200$)


 With contributions from (in alphabetic order):
[Max-Planck-Institut fuer Kohlenforschung]                               
  Daniel Aravena         : Magnetic Suceptibility                        
  Michael Atanasov       : Ab Initio Ligand Field Theory (pilot matlab implementation)
  Alexander A. Auer      : GIAO ZORA, VPT2 properties, NMR spectrum      
  Ute Becker             : All parallelization in ORCA, NUMFREQ, NUMCALC 
  Giovanni Bistoni       : ED, misc. LED, open-shell LED, HFLD           
  Dmytro Bykov           : pre 5.0 version of the SCF Hessian            
  Marcos Casanova-Páez   : Triplet and SCS-CIS(D). UHF-(DLPNO)-IP/EA/STEOM-CCSD. UHF-CVS-IP/STEOM-CCSD   
  Vijay G. Chilkuri      : MRCI spin determinant printing, contributions to CSF-ICE 
  Pauline Colinet        : FMM embedding                                 
  Dipayan Datta          : RHF DLPNO-CCSD density                        
  Achintya Kumar Dutta   : EOM-CC, STEOM-CC                              
  Nicolas Foglia         : Exact transition moments, OPA infrastructure, MCD improvements    
  Dmitry Ganyushin       : Spin-Orbit,Spin-Spin,Magnetic field MRCI      
  Miquel Garcia-Rates    : C-PCM and meta-GGA Hessian, CCSD/C-PCM, Gaussian charge scheme 
  Tiago L. C. Gouveia    : GS-ROHF, GS-ROCIS                             
  Yang Guo               : DLPNO-NEVPT2, F12-NEVPT2, CIM, IAO-localization        
  Andreas Hansen         : Spin unrestricted coupled pair/coupled cluster methods 
  Ingolf Harden          : AUTO-CI MPn and infrastructure                
  Benjamin Helmich-Paris : MC-RPA, TRAH-(SCF,CASSCF), AVAS, COSX integrals, SCF dyn. polar., MC-PDFT, srDFT 
  Lee Huntington         : MR-EOM, pCC                                   
  Robert Izsak           : Overlap fitted RIJCOSX, COSX-SCS-MP3, EOM     
  Riya Kayal             : Wick's Theorem for AUTO-CI, AUTO-CI UHF-CCSDT 
  Emily Kempfer          : AUTO-CI RHF CISDT and CCSDT, approximate NEVPT4
  Christian Kollmar      : KDIIS, OOCD, Brueckner-CCSD(T), CCSD density, CASPT2, CASPT2-K, improved NEVPT2 
  Axel Koslowski         : Symmetry handling                             
  Simone Kossmann        : meta-GGA functionals, TD-DFT gradient, OOMP2, (MP2 Hessian; deprecated post 5.0) 
  Lucas Lang             : DCDCAS, Hyperfine gauge corrections, ICE-SOC+SSC
  Marvin Lechner         : AUTO-CI (C++ implementation), FIC-MRCC        
  Spencer Leger          : CASSCF response                               
  Dagmar Lenk            : GEPOL surface, SMD, ORCA-2-JSON               
  Dimitrios Liakos       : Extrapolation schemes; Compound Job, Property file
  Dimitrios Manganas     : Further ROCIS development; embedding schemes. LFT, Crystal Embedding 
  Dimitrios Pantazis     : SARC Basis sets                               
  Anastasios Papadopoulos: AUTO-CI, single reference methods and gradients 
  Taras Petrenko         : pre 6.0 DFT Hessian and TD-DFT gradient,  ECA, NRVS 
  Petra Pikulova         : Analytic Raman intensities                    
  Peter Pinski           : DLPNO-MP2, DLPNO-MP2 Gradient                 
  Shashank Vittal Rao    : ES-AILFT, MagRelax                            
  Christoph Reimann      : Effective Core Potentials                     
  Marius Retegan         : Local ZFS, SOC                                
  Christoph Riplinger    : Optimizer, TS searches, QM/MM, DLPNO-CCSD(T), (RO)-DLPNO pert. Triples 
  Michael Roemelt        : Original ROCIS implementation, recursive CI coupling coefficients
  Masaaki Saitow         : Open-shell DLPNO-CCSD energy and density      
  Barbara Sandhoefer     : DKH picture change effects                    
  Yorick L. A. Schmerwitz: GMF and freeze-and-release deltaSCF, NEB S-IDPP initial path                    
  Kantharuban Sivalingam : CASSCF convergence/infrastructure, NEVPT2, NEVPT3, NEVPT4(SD), FIC-MRCI and CEPA variants
  Bernardo de Souza      : ESD, SOC TD-DFT                               
  Georgi L. Stoychev     : AutoAux, RI-MP2 NMR, DLPNO-MP2 response, X2C  
  Van Anh Tran           : RI-MP2 g-tensors                              
  Willem Van den Heuvel  : Paramagnetic NMR                              
  Zikuan Wang            : NOTCH, Electric field optimization            
  Frank Wennmohs         : Technical directorship and infrastructure     
  Hang Xu                : AUTO-CI-Response properties                   
                                                                         
[FACCTs GmbH]                                                            
  Markus Bursch, Nicolas Foglia, Miquel Garcia-Rates, Ingolf Harden, Hagen Neugebauer, Anastasios Papadopoulos, 
  Christoph Riplinger, Bernardo de Souza, Georgi L. Stoychev                                                    
                                                                 
  APM, various basis sets, CI-OPT, improved COSX, DLPNO-Multilevel,           
  DOCKER, DRACO, updates on ESD, Fragmentator, GOAT, IRC, LR-CPCM, L-BFGS, MBIS, meta-GGA TD-DFT gradient, ML-optimized integration grids, 
  MM, NACMEs, nearIR, NEB, NEB-TS, NL-DFT gradient (VV10), 2- and 3-layer-ONIOM, interface openCOSMO-RS, QMMM,   
  Crystal-QMMM, RESP, rigid body optimization, SF, symmetry and pop. for TD-DFT, various functionals, SOLVATOR                                   
                                                                         
[Other institutions]                                                     
  V. Asgeirsson          : NEB                                           
  Christoph Bannwarth    : sTDA-DFT, sTD-DFT, PBEh-3c, B97-3c, D3        
  Giovanni Bistoni       : ETS/NOCV, ADLD/ADEX, COVALED                  
  Martin Brehm           : Molecular dynamics                            
  Ronald Cardenas        : ETS/NOCV                                      
  Martina Colucci        : COVALED                                       
  Sebastian Ehlert       : rSCAN, r2SCAN, r2SCAN-3c, D4, dhf basis sets  
  Marvin Friede          : D4 for Fr, Ra, Ac-Lr                          
  Lars Goerigk           : TD-DFT with DH, B97 family of functionals     
  Stefan Grimme          : VdW corrections, initial TS optimization, DFT functionals, gCP, sTDA/sTD-DF 
  Waldemar Hujo          : DFT-NL                                        
  H. Jonsson             : NEB                                           
  Holger Kruse           : gCP                                           
  Marcel Mueller         : wB97X-3c, vDZP basis set                      
  Hagen Neugebauer       : wr2SCAN, Native XTB                           
  Gianluca Regni         : ADLD/ADEX                                     
  Tobias Risthaus        : pre 6.0 range-separated hybrid DFT and stability analysis
  Lukas Wittmann         : regularized MP2, r2SCAN double-hybrids, wr2SCAN        
                                                                         
We gratefully acknowledge several colleagues who have allowed us to      
interface, adapt or use parts of their codes:                            
  Ed Valeev, F. Pavosevic, A. Kumar             : LibInt (2-el integral package), F12 methods 
  Garnet Chan, S. Sharma, J. Yang, R. Olivares  : DMRG                   
  Ulf Ekstrom                                   : XCFun DFT Library      
  Mihaly Kallay                                 : mrcc  (arbitrary order and MRCC methods)
  Frank Weinhold                                : gennbo (NPA and NBO analysis)           
  Simon Mueller                                 : openCOSMO-RS                            
  Christopher J. Cramer and Donald G. Truhlar   : smd solvation model                     
  S Lehtola, MJT Oliveira, MAL Marques          : LibXC Library                           
  Liviu Ungur et al                             : ANISO software                          


 Your calculation uses the libint2 library for the computation of 2-el integrals
 For citations please refer to: http://libint.valeyev.net

 Your ORCA version has been built with support for libXC version: 7.0.0
 For citations please refer to: https://libxc.gitlab.io

 This ORCA versions uses:
   CBLAS   interface :  Fast vector & matrix operations
   LAPACKE interface :  Fast linear algebra routines
   SCALAPACK package :  Parallel linear algebra routines
   Shared memory     :  Shared parallel matrices
   BLAS/LAPACK       :  OpenBLAS 0.3.29  USE64BITINT DYNAMIC_ARCH NO_AFFINITY Zen SINGLE_THREADED
        Core in use  :  Zen
   Copyright (c) 2011-2014, The OpenBLAS Project


  ***********************************
  * Starting time: Thu Sep  4 15:39:53 2025
  * Host name:     ae2-c724
  * Process ID:    860395
  * Working dir.:  /home/jsc/Lehre/TCGPR/practical_course_bachelor/h2co3/hf_6_311_g_dp
  ***********************************

================================================================================

----- Orbital basis set information -----
Your calculation utilizes the basis: 6-311G(d,p)
   H, Li - Ne  : R. Krishnan, J. S. Binkley, R. Seeger and J. A. Pople, J. Chem. Phys. 72, 650 (1980).
   Na - Ar     : A. D. McLean and G. S. Chandler J. Chem. Phys. 72, 5639, (1980).
   K  - Ca     : J.-P. Blaudeau, M. P. McGrath, L. A. Curtiss and L. Radom, J. Chem. Phys. 107, 5016 (1997).
   Ga - Kr     : L. A. Curtiss, M. P. McGrath, J.-P. Blandeau, N. E. Davis, R. C. Binning and L. Radom, J. Chem. Phys. 103, 6104 (1995).
   Pol./Diff.
   H, Li - Cl  : T. Clark, J. Chandrasekhar and P. v. R. Schleyer, J. Comp. Chem. 4, 294 (1983).
   H - Ne      : M. J. Frisch, J. A. Pople and J. S. Binkley, J. Chem. Phys. 80, 3265 (1984).

================================================================================
                                        WARNINGS
                       Please study these warnings very carefully!
================================================================================

WARNING: Old DensityContainer found on disk!
         Will remove this file - 
         If you want to keep old densities, please start your calculation with a different basename. 


WARNING: Analytical and numerical frequencies both set to true
  ===> : Disabling Anfreq

WARNING: Geometry Optimization
  ===> : Switching off AutoStart
         For restart on a previous wavefunction, please use MOREAD

================================================================================
                                       INPUT FILE
================================================================================
NAME = h2co3.inp
|  1> ! HF 6-311G(d,p) OPT FREQ NUMFREQ
|  2> * xyz 0 1
|  3> C   0.000000   0.000000   0.000000
|  4> O   1.230000   0.000000   0.000000
|  5> O  -0.665000   1.151814   0.000000
|  6> O  -0.665000  -1.151814   0.000000
|  7> H  -0.022635   1.865233   0.000000
|  8> H  -0.022635  -1.865233   0.000000
|  9> *
| 10> 
| 11>                          ****END OF INPUT****
================================================================================

                       *****************************
                       * Geometry Optimization Run *
                       *****************************

Geometry optimization settings:
Update method            Update   .... BFGS
Choice of coordinates    CoordSys .... (2022) Redundant Internals
Initial Hessian          InHess   .... Almloef's Model
Max. no of cycles        MaxIter  .... 50

Convergence Tolerances:
Energy Change            TolE     ....  5.0000e-06 Eh
Max. Gradient            TolMAXG  ....  3.0000e-04 Eh/bohr
RMS Gradient             TolRMSG  ....  1.0000e-04 Eh/bohr
Max. Displacement        TolMAXD  ....  4.0000e-03 bohr
RMS Displacement         TolRMSD  ....  2.0000e-03 bohr
Strict Convergence                .... False

------------------------------------------------------------------------------
                        ORCA OPTIMIZATION COORDINATE SETUP
------------------------------------------------------------------------------

The optimization will be done in redundant internal coordinates (2022)
Making redundant internal coordinates   ...  (2022 redundants) done
Evaluating the initial hessian          ...  (Almloef) done
Evaluating the coordinates              ...  done
Calculating the B-matrix                .... done
Calculating the G-matrix                .... done
The number of degrees of freedom        ....   14

    -----------------------------------------------------------------
                    Redundant Internal Coordinates


    -----------------------------------------------------------------
         Definition                    Initial Value    Approx d2E/dq
    -----------------------------------------------------------------
      1. B(O   1,C   0)                  1.2300         1.007269   
      2. B(O   2,C   0)                  1.3300         0.697592   
      3. B(O   3,C   0)                  1.3300         0.697592   
      4. B(H   4,O   2)                  0.9600         0.519957   
      5. B(H   5,O   3)                  0.9600         0.519957   
      6. A(O   1,C   0,O   3)          120.0000         0.478061   
      7. A(O   2,C   0,O   3)          120.0000         0.447020   
      8. A(O   1,C   0,O   2)          120.0000         0.478061   
      9. A(C   0,O   2,H   4)          108.0000         0.377720   
     10. A(C   0,O   3,H   5)          108.0000         0.377720   
     11. D(H   4,O   2,C   0,O   1)      0.0000         0.036418   
     12. D(H   4,O   2,C   0,O   3)    180.0000         0.036418   
     13. D(H   5,O   3,C   0,O   1)      0.0000         0.036418   
     14. D(H   5,O   3,C   0,O   2)    180.0000         0.036418   
    -----------------------------------------------------------------

Number of atoms                         .... 6
Number of degrees of freedom            .... 14


         *************************************************************
         *                GEOMETRY OPTIMIZATION CYCLE   1            *
         *************************************************************
---------------------------------
CARTESIAN COORDINATES (ANGSTROEM)
---------------------------------
  C      0.000000    0.000000    0.000000
  O      1.230000    0.000000    0.000000
  O     -0.665000    1.151814    0.000000
  O     -0.665000   -1.151814    0.000000
  H     -0.022635    1.865233    0.000000
  H     -0.022635   -1.865233    0.000000

----------------------------
CARTESIAN COORDINATES (A.U.)
----------------------------
  NO LB      ZA    FRAG     MASS         X           Y           Z
   0 C     6.0000    0    12.011    0.000000    0.000000    0.000000
   1 O     8.0000    0    15.999    2.324363    0.000000    0.000000
   2 O     8.0000    0    15.999   -1.256668    2.176613    0.000000
   3 O     8.0000    0    15.999   -1.256668   -2.176613    0.000000
   4 H     1.0000    0     1.008   -0.042774    3.524780    0.000000
   5 H     1.0000    0     1.008   -0.042774   -3.524780    0.000000

--------------------------------
INTERNAL COORDINATES (ANGSTROEM)
--------------------------------
 C      0   0   0     0.000000000000     0.00000000     0.00000000
 O      1   0   0     1.230000000000     0.00000000     0.00000000
 O      1   2   0     1.330000184435   119.99999541     0.00000000
 O      1   2   3     1.330000184435   119.99999541   180.00000000
 H      3   1   2     0.959999720201   108.00002024     0.00000000
 H      4   1   2     0.959999720201   108.00002024     0.00000000

---------------------------
INTERNAL COORDINATES (A.U.)
---------------------------
 C      0   0   0     0.000000000000     0.00000000     0.00000000
 O      1   0   0     2.324363144723     0.00000000     0.00000000
 O      1   2   0     2.513336106646   119.99999541     0.00000000
 O      1   2   3     2.513336106646   119.99999541   180.00000000
 H      3   1   2     1.814136559821   108.00002024     0.00000000
 H      4   1   2     1.814136559821   108.00002024     0.00000000

---------------------
BASIS SET INFORMATION
---------------------
There are 3 groups of distinct atoms

 Group   1 Type C   : 11s5p1d contracted to 4s3p1d pattern {6311/311/1}
 Group   2 Type O   : 11s5p1d contracted to 4s3p1d pattern {6311/311/1}
 Group   3 Type H   : 5s1p contracted to 3s1p pattern {311/1}

Atom   0C    basis set group =>   1
Atom   1O    basis set group =>   2
Atom   2O    basis set group =>   2
Atom   3O    basis set group =>   2
Atom   4H    basis set group =>   3
Atom   5H    basis set group =>   3
------------------------------------------------------------------------------
                             ORCA STARTUP CALCULATIONS
------------------------------------------------------------------------------
------------------------------------------------------------------------------
                   ___                                                        
                  /   \      - P O W E R E D   B Y -                         
                 /     \                                                     
                 |  |  |   _    _      __       _____    __    __             
                 |  |  |  | |  | |    /  \     |  _  \  |  |  /  |          
                  \  \/   | |  | |   /    \    | | | |  |  | /  /          
                 / \  \   | |__| |  /  /\  \   | |_| |  |  |/  /          
                |  |  |   |  __  | /  /__\  \  |    /   |      \           
                |  |  |   | |  | | |   __   |  |    \   |  |\   \          
                \     /   | |  | | |  |  |  |  | |\  \  |  | \   \       
                 \___/    |_|  |_| |__|  |__|  |_| \__\ |__|  \__/        
                                                                              
                      - O R C A' S   B I G   F R I E N D -                    
                                      &                                       
                       - I N T E G R A L  F E E D E R -                       
                                                                              
 v1 FN, 2020, v2 2021, v3 2022-2024                                           
------------------------------------------------------------------------------


----------------------
SHARK INTEGRAL PACKAGE
----------------------

Number of atoms                             ...      6
Number of basis functions                   ...     84
Number of shells                            ...     40
Maximum angular momentum                    ...      2
Integral batch strategy                     ... SHARK/LIBINT Hybrid
RI-J (if used) integral strategy            ... SPLIT-RIJ (Revised 2003 algorithm where possible)
Printlevel                                  ...      1
Contraction scheme used                     ... SEGMENTED contraction
Prescreening option                         ... SCHWARTZ
   Thresh                                   ... 2.500e-11
   Tcut                                     ... 2.500e-12
   Tpresel                                  ... 2.500e-12 
Coulomb Range Separation                    ... NOT USED
Exchange Range Separation                   ... NOT USED
Multipole approximations                    ... NOT USED
Finite Nucleus Model                        ... NOT USED
CABS basis                                  ... NOT available
Auxiliary Coulomb fitting basis             ... NOT available
Auxiliary J/K fitting basis                 ... NOT available
Auxiliary Correlation fitting basis         ... NOT available
Auxiliary 'external' fitting basis          ... NOT available

Checking pre-screening integrals            ... done (  0.0 sec) Dimension = 40
   => SHARK Basis and OBASIS are compatible. Storing Pre-screening
Shell pair information
Shell pair cut-off parameter TPreSel        ...   2.5e-12
Total number of shell pairs                 ...       820
Shell pairs after pre-screening             ...       791
Total number of primitive shell pairs       ...      3330
Primitive shell pairs kept                  ...      2521
          la=0 lb=0:    236 shell pairs
          la=1 lb=0:    296 shell pairs
          la=1 lb=1:    105 shell pairs
          la=2 lb=0:     88 shell pairs
          la=2 lb=1:     56 shell pairs
          la=2 lb=2:     10 shell pairs

Checking whether 4 symmetric matrices of dimension 84 fit in memory
:Max Core in MB      =   4096.00
 MB in use           =      2.25
 MB left             =   4093.75
 MB needed           =      0.11
 Data fit in memory  = YES
Calculating Nuclear repulsion               ... done (  0.0 sec) ENN=    122.971964532274 Eh

Diagonalization of the overlap matrix:
Smallest eigenvalue                        ... 7.690e-03
Time for diagonalization                   ...    0.001 sec
Threshold for overlap eigenvalues          ... 1.000e-07
Number of eigenvalues below threshold      ... 0
Time for construction of square roots      ...    0.000 sec
Total time needed                          ...    0.002 sec

-------------------
DFT GRID GENERATION
-------------------

General Integration Accuracy     IntAcc      ... 4.388
Radial Grid Type                 RadialGrid  ... OptM3 with GC (2021)
Angular Grid (max. ang.)         AngularGrid ... 4 (Lebedev-302)
Angular grid pruning method      GridPruning ... 4 (adaptive)
Weight generation scheme         WeightScheme... mBecke (2022)
Basis function cutoff            BFCut       ... 1.0000e-11
Integration weight cutoff        WCut        ... 1.0000e-14
Partially contracted basis set               ... off
Rotationally invariant grid construction     ... off
Angular grids for H and He will be reduced by one unit

Total number of grid points                  ...    30967
Total number of batches                      ...      487
Average number of points per batch           ...       63
Average number of grid points per atom       ...     5161
Grids setup in   0.2 sec
Initializing property integral containers    ... done (  0.0 sec)

SHARK setup successfully completed in   0.2 seconds

Maximum memory used throughout the entire STARTUP-calculation: 12.1 MB
-------------------------------------------------------------------------------
                                 ORCA GUESS
                   Start orbitals & Density for SCF / CASSCF
-------------------------------------------------------------------------------

------------
SCF SETTINGS
------------
Hamiltonian:
 Ab initio Hamiltonian  Method          .... Hartree-Fock(GTOs)


General Settings:
 Integral files         IntName         .... h2co3
 Hartree-Fock type      HFTyp           .... RHF
 Total Charge           Charge          ....    0
 Multiplicity           Mult            ....    1
 Number of Electrons    NEL             ....   32
 Basis Dimension        Dim             ....   84
 Nuclear Repulsion      ENuc            ....    122.9719645323 Eh

Convergence Acceleration:
 AO-DIIS                CNVDIIS         .... on
   Start iteration      DIISMaxIt       ....    12
   Startup error        DIISStart       ....  0.200000
   # of expansion vecs  DIISMaxEq       ....     5
   Bias factor          DIISBfac        ....   1.050
   Max. coefficient     DIISMaxC        ....  10.000
 MO-DIIS                CNVKDIIS        .... off
 Trust-Rad. Augm. Hess. CNVTRAH         .... auto
   Auto Start mean grad. ratio tolernc. ....  1.125000
   Auto Start start iteration           ....    50
   Auto Start num. interpolation iter.  ....    10
   Max. Number of Micro iterations      ....    24
   Max. Number of Macro iterations      .... Maxiter - #DIIS iter
   Number of Davidson start vectors     ....     2
   Converg. threshold    (grad. norm)   ....   1.000e-05
   Grad. Scal. Fac. for Micro threshold ....   0.100
   Minimum threshold for Micro iter.    ....   1.000e-02
   NR start threshold (gradient norm)   ....   1.000e-04
   Initial trust radius                 ....   0.400
   Minimum AH scaling param. (alpha)    ....   1.000
   Maximum AH scaling param. (alpha)    .... 1000.000
   Quad. conv. algorithm                .... NR
   White noise on init. David. guess    .... on
   Maximum white noise                  ....   0.010
   Pseudo random numbers                .... off
   Inactive MOs                         .... canonical
   Orbital update algorithm             .... Taylor
   Preconditioner                       .... Diag
   Full preconditioner red. dimension   ....   250
 SOSCF                 CNVSOSCF           .... on
   Start iteration     SOSCFMaxIt         ....   150
   Startup grad/error  SOSCFStart         ....  0.003300
   Hessian update      SOSCFHessUp        .... L-BFGS
   Autom. constraints  SOSCFAutoConstrain .... off
 Level Shifting         CNVShift        .... on
   Level shift para.    LevelShift      ....    0.2500
   Turn off err/grad.   ShiftErr        ....    0.0010
 Zerner damping         CNVZerner       .... off
 Static damping         CNVDamp         .... on
   Fraction old density DampFac         ....    0.7000
   Max. Damping (<1)    DampMax         ....    0.9800
   Min. Damping (>=0)   DampMin         ....    0.0000
   Turn off err/grad.   DampErr         ....    0.1000

SCF Procedure:
 Maximum # iterations   MaxIter         ....   125
 SCF integral mode      SCFMode         .... Direct
   Integral package                     .... SHARK and LIBINT hybrid scheme
 Reset frequency        DirectResetFreq ....    20
 Integral Threshold     Thresh          ....  2.500e-11 Eh
 Primitive CutOff       TCut            ....  2.500e-12 Eh

Convergence Tolerance:
 Convergence Check Mode ConvCheckMode   .... Total+1el-Energy
 Convergence forced     ConvForced      .... 0
 Energy Change          TolE            ....  1.000e-08 Eh
 1-El. energy change                    ....  1.000e-05 Eh
 Orbital Gradient       TolG            ....  1.000e-05
 Orbital Rotation angle TolX            ....  1.000e-05
 DIIS Error             TolErr          ....  5.000e-07

------------------------------
INITIAL GUESS: MODEL POTENTIAL
------------------------------
Loading Hartree-Fock densities                     ... done
Calculating cut-offs                               ... done
Initializing the effective Hamiltonian             ... done
Setting up the integral package (SHARK)            ... done
Starting the Coulomb interaction                   ... done (   0.0 sec)
Making the grid                                    ... done (   0.0 sec)
Mapping shells                                     ... done
Starting the XC term evaluation                    ... done (   0.0 sec)
Transforming the Hamiltonian                       ... done (   0.0 sec)
Diagonalizing the Hamiltonian                      ... done (   0.0 sec)
Back transforming the eigenvectors                 ... done (   0.0 sec)
Now organizing SCF variables                       ... done
                      ------------------
                      INITIAL GUESS DONE (   0.1 sec)
                      ------------------
             **** ENERGY FILE WAS UPDATED (h2co3.en.tmp) ****
Finished Guess after   0.1 sec
Maximum memory used throughout the entire GUESS-calculation: 5.1 MB

-------------------------------------------------------------------------------------------
                                      ORCA LEAN-SCF
                              memory conserving SCF solver
-------------------------------------------------------------------------------------------

----------------------------------------D-I-I-S--------------------------------------------
Iteration    Energy (Eh)           Delta-E    RMSDP     MaxDP     DIISErr   Damp  Time(sec)
-------------------------------------------------------------------------------------------
               ***  Starting incremental Fock matrix formation  ***
    1    -263.5122668053583084     0.00e+00  2.82e-03  5.16e-02  3.85e-01  0.700   0.3
    2    -263.5900325423958748    -7.78e-02  1.87e-03  2.95e-02  2.29e-01  0.700   0.3
                               ***Turning on AO-DIIS***
    3    -263.6327007595816667    -4.27e-02  7.51e-04  9.52e-03  1.27e-01  0.700   0.3
    4    -263.6592665279437142    -2.66e-02  5.10e-04  6.06e-03  8.89e-02  0.700   0.3
    5    -263.6772633057534563    -1.80e-02  1.32e-03  1.46e-02  6.51e-02  0.000   0.2
    6    -263.7189983528187440    -4.17e-02  2.15e-04  4.25e-03  6.02e-03  0.000   0.3
                              *** Initializing SOSCF ***
---------------------------------------S-O-S-C-F--------------------------------------
Iteration    Energy (Eh)           Delta-E    RMSDP     MaxDP     MaxGrad    Time(sec)
--------------------------------------------------------------------------------------
    7    -263.7191399984728264    -1.42e-04  1.21e-04  1.31e-03  2.13e-03     0.2
               *** Restarting incremental Fock matrix formation ***
    8    -263.7191788515812618    -3.89e-05  6.75e-05  7.67e-04  1.26e-03     0.3
    9    -263.7191893877125040    -1.05e-05  8.22e-05  1.00e-03  3.99e-04     0.2
   10    -263.7191933109820070    -3.92e-06  1.40e-05  2.30e-04  2.14e-04     0.2
   11    -263.7191936651640845    -3.54e-07  3.78e-06  5.12e-05  5.59e-05     0.2
   12    -263.7191936901388090    -2.50e-08  2.18e-06  4.86e-05  1.92e-05     0.2
   13    -263.7191936961883698    -6.05e-09  4.89e-07  6.78e-06  4.41e-06     0.2
                 **** Energy Check signals convergence ****

               *****************************************************
               *                     SUCCESS                       *
               *           SCF CONVERGED AFTER  13 CYCLES          *
               *****************************************************

             **** ENERGY FILE WAS UPDATED (h2co3.en.tmp) ****

----------------
TOTAL SCF ENERGY
----------------

Total Energy       :       -263.71919369656007 Eh           -7176.16409 eV

Components:
Nuclear Repulsion  :        122.97196453227441 Eh            3346.23727 eV
Electronic Energy  :       -386.69115822883447 Eh          -10522.40136 eV
One Electron Energy:       -606.50816408767628 Eh          -16503.92619 eV
Two Electron Energy:        219.81700585884181 Eh            5981.52482 eV

Virial components:
Potential Energy   :       -527.15472417054661 Eh          -14344.60931 eV
Kinetic Energy     :        263.43553047398649 Eh            7168.44522 eV
Virial Ratio       :          2.00107678422141

---------------
SCF CONVERGENCE
---------------

  Last Energy change         ...    6.0496e-09  Tolerance :   1.0000e-08
  Last MAX-Density change    ...    6.7751e-06  Tolerance :   1.0000e-07
  Last RMS-Density change    ...    4.8940e-07  Tolerance :   5.0000e-09
  Last DIIS Error            ...    2.1325e-03  Tolerance :   5.0000e-07
  Last Orbital Gradient      ...    4.4148e-06  Tolerance :   1.0000e-05
  Last Orbital Rotation      ...    1.1911e-05  Tolerance :   1.0000e-05


----------------
ORBITAL ENERGIES
----------------

  NO   OCC          E(Eh)            E(eV) 
   0   2.0000     -20.631608      -561.4146 
   1   2.0000     -20.631589      -561.4141 
   2   2.0000     -20.537091      -558.8427 
   3   2.0000     -11.453838      -311.6748 
   4   2.0000      -1.523568       -41.4584 
   5   2.0000      -1.432180       -38.9716 
   6   2.0000      -1.350698       -36.7543 
   7   2.0000      -0.911122       -24.7929 
   8   2.0000      -0.768421       -20.9098 
   9   2.0000      -0.723280       -19.6815 
  10   2.0000      -0.687787       -18.7156 
  11   2.0000      -0.685240       -18.6463 
  12   2.0000      -0.591647       -16.0995 
  13   2.0000      -0.564278       -15.3548 
  14   2.0000      -0.474939       -12.9238 
  15   2.0000      -0.469788       -12.7836 
  16   0.0000       0.138015         3.7556 
  17   0.0000       0.165226         4.4960 
  18   0.0000       0.207717         5.6523 
  19   0.0000       0.374435        10.1889 
  20   0.0000       0.448301        12.1989 
  21   0.0000       0.538373        14.6499 
  22   0.0000       0.545205        14.8358 
  23   0.0000       0.554167        15.0797 
  24   0.0000       0.571764        15.5585 
  25   0.0000       0.617737        16.8095 
  26   0.0000       0.695752        18.9324 
*Only the first 10 virtual orbitals were printed.

                    ********************************
                    * MULLIKEN POPULATION ANALYSIS *
                    ********************************

-----------------------
MULLIKEN ATOMIC CHARGES
-----------------------
   0 C :    0.708001
   1 O :   -0.524569
   2 O :   -0.394320
   3 O :   -0.394320
   4 H :    0.302604
   5 H :    0.302604
Sum of atomic charges:    0.0000000

--------------------------------
MULLIKEN REDUCED ORBITAL CHARGES
--------------------------------
  0 C s       :     2.854321  s :     2.854321
      pz      :     0.670442  p :     2.152805
      px      :     0.771748
      py      :     0.710615
      dz2     :     0.011204  d :     0.284872
      dxz     :     0.055321
      dyz     :     0.038457
      dx2y2   :     0.069543
      dxy     :     0.110347

  1 O s       :     3.860139  s :     3.860139
      pz      :     1.529593  p :     4.646459
      px      :     1.288490
      py      :     1.828375
      dz2     :     0.002202  d :     0.017972
      dxz     :     0.005307
      dyz     :     0.000015
      dx2y2   :     0.007450
      dxy     :     0.002998

  2 O s       :     3.791111  s :     3.791111
      pz      :     1.830013  p :     4.588044
      px      :     1.579565
      py      :     1.178467
      dz2     :     0.002389  d :     0.015164
      dxz     :     0.001559
      dyz     :     0.000951
      dx2y2   :     0.001485
      dxy     :     0.008781

  3 O s       :     3.791111  s :     3.791111
      pz      :     1.830013  p :     4.588044
      px      :     1.579565
      py      :     1.178467
      dz2     :     0.002389  d :     0.015164
      dxz     :     0.001559
      dyz     :     0.000951
      dx2y2   :     0.001485
      dxy     :     0.008781

  4 H s       :     0.630665  s :     0.630665
      pz      :     0.017910  p :     0.066732
      px      :     0.021836
      py      :     0.026986

  5 H s       :     0.630665  s :     0.630665
      pz      :     0.017910  p :     0.066732
      px      :     0.021836
      py      :     0.026986



                     *******************************
                     * LOEWDIN POPULATION ANALYSIS *
                     *******************************

----------------------
LOEWDIN ATOMIC CHARGES
----------------------
   0 C :    0.002601
   1 O :   -0.244664
   2 O :    0.045927
   3 O :    0.045927
   4 H :    0.075105
   5 H :    0.075105

-------------------------------
LOEWDIN REDUCED ORBITAL CHARGES
-------------------------------
  0 C s       :     2.776365  s :     2.776365
      pz      :     0.708724  p :     2.677450
      px      :     1.049975
      py      :     0.918752
      dz2     :     0.031066  d :     0.543584
      dxz     :     0.094441
      dyz     :     0.070363
      dx2y2   :     0.136503
      dxy     :     0.211211

  1 O s       :     3.511628  s :     3.511628
      pz      :     1.498596  p :     4.708359
      px      :     1.430324
      py      :     1.779440
      dz2     :     0.003825  d :     0.024677
      dxz     :     0.004888
      dyz     :     0.000020
      dx2y2   :     0.012629
      dxy     :     0.003314

  2 O s       :     3.342635  s :     3.342635
      pz      :     1.760412  p :     4.590415
      px      :     1.607789
      py      :     1.222214
      dz2     :     0.003377  d :     0.021024
      dxz     :     0.001017
      dyz     :     0.001319
      dx2y2   :     0.002496
      dxy     :     0.012816

  3 O s       :     3.342635  s :     3.342635
      pz      :     1.760412  p :     4.590415
      px      :     1.607789
      py      :     1.222214
      dz2     :     0.003377  d :     0.021024
      dxz     :     0.001017
      dyz     :     0.001319
      dx2y2   :     0.002496
      dxy     :     0.012816

  4 H s       :     0.733968  s :     0.733968
      pz      :     0.048736  p :     0.190927
      px      :     0.074462
      py      :     0.067729

  5 H s       :     0.733968  s :     0.733968
      pz      :     0.048736  p :     0.190927
      px      :     0.074462
      py      :     0.067729



                      *****************************
                      * MAYER POPULATION ANALYSIS *
                      *****************************

  NA   - Mulliken gross atomic population
  ZA   - Total nuclear charge
  QA   - Mulliken gross atomic charge
  VA   - Mayer's total valence
  BVA  - Mayer's bonded valence
  FA   - Mayer's free valence

  ATOM       NA         ZA         QA         VA         BVA        FA
  0 C      5.2920     6.0000     0.7080     4.1515     4.1515    -0.0000
  1 O      8.5246     8.0000    -0.5246     1.9144     1.9144     0.0000
  2 O      8.3943     8.0000    -0.3943     2.0453     2.0453     0.0000
  3 O      8.3943     8.0000    -0.3943     2.0453     2.0453     0.0000
  4 H      0.6974     1.0000     0.3026     0.9503     0.9503     0.0000
  5 H      0.6974     1.0000     0.3026     0.9503     0.9503     0.0000

  Mayer bond orders larger than 0.100000
B(  0-C ,  1-O ) :   1.8685 B(  0-C ,  2-O ) :   1.1279 B(  0-C ,  3-O ) :   1.1279 
B(  2-O ,  4-H ) :   0.9127 B(  3-O ,  5-H ) :   0.9127 

-------
TIMINGS
-------

Total SCF time: 0 days 0 hours 0 min 3 sec 

Total time                  ....       3.425 sec
Sum of individual times     ....       3.212 sec  ( 93.8%)

SCF preparation             ....       0.036 sec  (  1.0%)
Fock matrix formation       ....       3.099 sec  ( 90.5%)
  Startup                   ....       0.001 sec  (  0.0% of F)
  Coulomb+Exchange Fock     ....       3.285 sec  (106.0% of F)
Diagonalization             ....       0.000 sec  (  0.0%)
Density matrix formation    ....       0.052 sec  (  1.5%)
Total Energy calculation    ....       0.001 sec  (  0.0%)
Population analysis         ....       0.002 sec  (  0.1%)
Orbital Transformation      ....       0.003 sec  (  0.1%)
Orbital Orthonormalization  ....       0.000 sec  (  0.0%)
DIIS solution               ....       0.013 sec  (  0.4%)
SOSCF solution              ....       0.007 sec  (  0.2%)
Finished LeanSCF after   3.4 sec

Maximum memory used throughout the entire LEANSCF-calculation: 8.6 MB

-------------------------   --------------------
FINAL SINGLE POINT ENERGY      -263.719193696560
-------------------------   --------------------

------------------------------------------------------------------------------
                         ORCA SCF GRADIENT CALCULATION
------------------------------------------------------------------------------

Nuc. rep. gradient        (SHARK) ... done (  0.0 sec)
HCore & Overlap gradient  (SHARK) ... done (  0.0 sec)
Two-electron gradient     (SHARK) ... done (  1.2 sec)

------------------
CARTESIAN GRADIENT
------------------

   1   C   :   -0.094505386    0.000000000   -0.000000000
   2   O   :    0.067360912    0.000000000    0.000000000
   3   O   :    0.006064130    0.028944700    0.000000000
   4   O   :    0.006064130   -0.028944700   -0.000000000
   5   H   :    0.007508107    0.017472451   -0.000000000
   6   H   :    0.007508107   -0.017472451    0.000000000

Difference to translation invariance:
           :   -0.0000000000    0.0000000000   -0.0000000000

Difference to rotation invariance:
           :   -0.0000000000    0.0000000000   -0.0000000000

Norm of the Cartesian gradient     ...    0.1262585262
RMS gradient                       ...    0.0297594200
MAX gradient                       ...    0.0945053858

-------
TIMINGS
-------

Total SCF gradient time     ....        1.237 sec

Densities                   ....       0.000 sec  (  0.0%)
One electron gradient       ....       0.023 sec  (  1.9%)
Two electron gradient       ....       1.213 sec  ( 98.1%)

Maximum memory used throughout the entire SCFGRAD-calculation: 14.5 MB
------------------------------------------------------------------------------
                         ORCA GEOMETRY RELAXATION STEP
------------------------------------------------------------------------------

Reading the OPT-File                    .... done
Getting information on internals        .... done
Copying old internal coords+grads       .... done
Making the new internal coordinates     .... (2022 redundants) done
Validating the new internal coordinates .... (2022 redundants) done
Calculating the B-matrix                .... done
Calculating the G,G- and P matrices     .... done
Transforming gradient to internals      .... done
Projecting the internal gradient        .... done
Number of atoms                         ....   6
Number of internal coordinates          ....  14
Current Energy                          ....  -263.719193697 Eh
Current gradient norm                   ....     0.126258526 Eh/bohr
Maximum allowed component of the step   ....  0.300
Current trust radius                    ....  0.300
Evaluating the initial hessian          ....  (Almloef) done
Projecting the Hessian                  .... done
Forming the augmented Hessian           .... done
Diagonalizing the augmented Hessian     .... done
Last element of RFO vector              ....  0.985367217
Lowest eigenvalues of augmented Hessian:
 -0.017651846  0.036418280  0.036418280  0.036418280  0.377719754
Length of the computed step             ....  0.172975974
The final length of the internal step   ....  0.172975974
Converting the step to Cartesian space:
 Initial RMS(Int)=    0.0462297737
Transforming coordinates:
 Iter   0:  RMS(Cart)=    0.0578535742 RMS(Int)=    1.6798867858
 Iter   5:  RMS(Cart)=    0.0000000106 RMS(Int)=    0.0000000126
done
Storing new coordinates                 .... done

                                .--------------------.
          ----------------------|Geometry convergence|-------------------------
          Item                value                   Tolerance       Converged
          ---------------------------------------------------------------------
          RMS gradient        0.0287791479            0.0001000000      NO
          MAX gradient        0.0673609119            0.0003000000      NO
          RMS step            0.0462297737            0.0020000000      NO
          MAX step            0.1077641232            0.0040000000      NO
          -------------------------------------------------------------------------
          ........................................................
          Max(Bonds)      0.0348      Max(Angles)    6.17
          Max(Dihed)        0.00      Max(Improp)    0.00
          ---------------------------------------------------------------------

The optimization has not yet converged - more geometry cycles are needed


    ---------------------------------------------------------------------------
                         Redundant Internal Coordinates
                            (Angstroem and degrees)

        Definition                    Value    dE/dq     Step     New-Value
    ----------------------------------------------------------------------------
     1. B(O   1,C   0)                1.2300  0.067361 -0.0348    1.1952   
     2. B(O   2,C   0)                1.3300  0.033412 -0.0247    1.3053   
     3. B(O   3,C   0)                1.3300  0.033412 -0.0247    1.3053   
     4. B(H   4,O   2)                0.9600  0.018008 -0.0177    0.9423   
     5. B(H   5,O   3)                0.9600  0.018008 -0.0177    0.9423   
     6. A(O   1,C   0,O   3)          120.00 -0.025595    3.09    123.09   
     7. A(O   2,C   0,O   3)          120.00  0.051190   -6.17    113.83   
     8. A(O   1,C   0,O   2)          120.00 -0.025595    3.09    123.09   
     9. A(C   0,O   2,H   4)          108.00  0.011088   -1.61    106.39   
    10. A(C   0,O   3,H   5)          108.00  0.011088   -1.61    106.39   
    11. D(H   4,O   2,C   0,O   1)      0.00  0.000000   -0.00     -0.00   
    12. D(H   4,O   2,C   0,O   3)    180.00  0.000000    0.00    180.00   
    13. D(H   5,O   3,C   0,O   1)      0.00 -0.000000    0.00      0.00   
    14. D(H   5,O   3,C   0,O   2)    180.00  0.000000   -0.00    180.00   
    ----------------------------------------------------------------------------

Geometry step timings:
Preparation and reading OPT file:      0.000 s ( 3.569 %)
Internal coordinates            :      0.000 s ( 4.810 %)
B/P matrices and projection     :      0.000 s (17.145 %)
Hessian update/contruction      :      0.000 s (16.214 %)
Making the step                 :      0.000 s (14.740 %)
Converting the step to Cartesian:      0.000 s ( 6.206 %)
Storing new data                :      0.000 s ( 4.034 %)
Checking convergence            :      0.000 s ( 7.060 %)
Final printing                  :      0.000 s (26.222 %)
Total time                      :      0.001 s

Time for energy+gradient        :      5.122 s
Time for complete geometry iter :      5.145 s

         *************************************************************
         *                GEOMETRY OPTIMIZATION CYCLE   2            *
         *************************************************************
---------------------------------
CARTESIAN COORDINATES (ANGSTROEM)
---------------------------------
  C      0.047565   -0.000000    0.000000
  O      1.242786   -0.000000   -0.000000
  O     -0.665006    1.093616   -0.000000
  O     -0.665006   -1.093616    0.000000
  H     -0.052804    1.809918    0.000000
  H     -0.052804   -1.809918   -0.000000

----------------------------
CARTESIAN COORDINATES (A.U.)
----------------------------
  NO LB      ZA    FRAG     MASS         X           Y           Z
   0 C     6.0000    0    12.011    0.089886   -0.000000    0.000000
   1 O     8.0000    0    15.999    2.348526   -0.000000   -0.000000
   2 O     8.0000    0    15.999   -1.256680    2.066636   -0.000000
   3 O     8.0000    0    15.999   -1.256680   -2.066636    0.000000
   4 H     1.0000    0     1.008   -0.099786    3.420250    0.000000
   5 H     1.0000    0     1.008   -0.099786   -3.420250   -0.000000

--------------------------------
INTERNAL COORDINATES (ANGSTROEM)
--------------------------------
 C      0   0   0     0.000000000000     0.00000000     0.00000000
 O      1   0   0     1.195220849458     0.00000000     0.00000000
 O      1   2   0     1.305279884090   123.08721014     0.00000000
 O      1   2   3     1.305279884090   123.08721014   180.00000000
 H      3   1   2     0.942273680493   106.39325761     0.00000000
 H      4   1   2     0.942273680493   106.39325761     0.00000000

---------------------------
INTERNAL COORDINATES (A.U.)
---------------------------
 C      0   0   0     0.000000000000     0.00000000     0.00000000
 O      1   0   0     2.258640075028     0.00000000     0.00000000
 O      1   2   0     2.466621509047   123.08721014     0.00000000
 O      1   2   3     2.466621509047   123.08721014   180.00000000
 H      3   1   2     1.780639199333   106.39325761     0.00000000
 H      4   1   2     1.780639199333   106.39325761     0.00000000

------------------------------------------------------------------------------
                   ___                                                        
                  /   \      - P O W E R E D   B Y -                         
                 /     \                                                     
                 |  |  |   _    _      __       _____    __    __             
                 |  |  |  | |  | |    /  \     |  _  \  |  |  /  |          
                  \  \/   | |  | |   /    \    | | | |  |  | /  /          
                 / \  \   | |__| |  /  /\  \   | |_| |  |  |/  /          
                |  |  |   |  __  | /  /__\  \  |    /   |      \           
                |  |  |   | |  | | |   __   |  |    \   |  |\   \          
                \     /   | |  | | |  |  |  |  | |\  \  |  | \   \       
                 \___/    |_|  |_| |__|  |__|  |_| \__\ |__|  \__/        
                                                                              
                      - O R C A' S   B I G   F R I E N D -                    
                                      &                                       
                       - I N T E G R A L  F E E D E R -                       
                                                                              
 v1 FN, 2020, v2 2021, v3 2022-2024                                           
------------------------------------------------------------------------------


----------------------
SHARK INTEGRAL PACKAGE
----------------------

Number of atoms                             ...      6
Number of basis functions                   ...     84
Number of shells                            ...     40
Maximum angular momentum                    ...      2
Integral batch strategy                     ... SHARK/LIBINT Hybrid
RI-J (if used) integral strategy            ... SPLIT-RIJ (Revised 2003 algorithm where possible)
Printlevel                                  ...      1
Contraction scheme used                     ... SEGMENTED contraction
Prescreening option                         ... SCHWARTZ
   Thresh                                   ... 2.500e-11
   Tcut                                     ... 2.500e-12
   Tpresel                                  ... 2.500e-12 
Coulomb Range Separation                    ... NOT USED
Exchange Range Separation                   ... NOT USED
Multipole approximations                    ... NOT USED
Finite Nucleus Model                        ... NOT USED
CABS basis                                  ... NOT available
Auxiliary Coulomb fitting basis             ... NOT available
Auxiliary J/K fitting basis                 ... NOT available
Auxiliary Correlation fitting basis         ... NOT available
Auxiliary 'external' fitting basis          ... NOT available

Checking pre-screening integrals            ... done (  0.0 sec) Dimension = 40
   => SHARK Basis and OBASIS are compatible. Storing Pre-screening
Shell pair information
Shell pair cut-off parameter TPreSel        ...   2.5e-12
Total number of shell pairs                 ...       820
Shell pairs after pre-screening             ...       793
Total number of primitive shell pairs       ...      3330
Primitive shell pairs kept                  ...      2533
          la=0 lb=0:    236 shell pairs
          la=1 lb=0:    298 shell pairs
          la=1 lb=1:    105 shell pairs
          la=2 lb=0:     88 shell pairs
          la=2 lb=1:     56 shell pairs
          la=2 lb=2:     10 shell pairs

Checking whether 4 symmetric matrices of dimension 84 fit in memory
:Max Core in MB      =   4096.00
 MB in use           =      2.31
 MB left             =   4093.69
 MB needed           =      0.11
 Data fit in memory  = YES
Calculating Nuclear repulsion               ... done (  0.0 sec) ENN=    125.749787782499 Eh

Diagonalization of the overlap matrix:
Smallest eigenvalue                        ... 7.703e-03
Time for diagonalization                   ...    0.001 sec
Threshold for overlap eigenvalues          ... 1.000e-07
Number of eigenvalues below threshold      ... 0
Time for construction of square roots      ...    0.000 sec
Total time needed                          ...    0.002 sec

-------------------
DFT GRID GENERATION
-------------------

General Integration Accuracy     IntAcc      ... 4.388
Radial Grid Type                 RadialGrid  ... OptM3 with GC (2021)
Angular Grid (max. ang.)         AngularGrid ... 4 (Lebedev-302)
Angular grid pruning method      GridPruning ... 4 (adaptive)
Weight generation scheme         WeightScheme... mBecke (2022)
Basis function cutoff            BFCut       ... 1.0000e-11
Integration weight cutoff        WCut        ... 1.0000e-14
Partially contracted basis set               ... off
Rotationally invariant grid construction     ... off
Angular grids for H and He will be reduced by one unit

Total number of grid points                  ...    30945
Total number of batches                      ...      486
Average number of points per batch           ...       63
Average number of grid points per atom       ...     5158
Grids setup in   0.2 sec
Initializing property integral containers    ... done (  0.0 sec)

SHARK setup successfully completed in   0.2 seconds

Maximum memory used throughout the entire STARTUP-calculation: 12.2 MB
Occupation numbers will be reassigned to an Aufbau configuration
             **** ENERGY FILE WAS UPDATED (h2co3.en.tmp) ****
Finished Guess after   0.0 sec
Maximum memory used throughout the entire GUESS-calculation: 5.2 MB
----------------------------------------D-I-I-S--------------------------------------------
Iteration    Energy (Eh)           Delta-E    RMSDP     MaxDP     DIISErr   Damp  Time(sec)
-------------------------------------------------------------------------------------------
               ***  Starting incremental Fock matrix formation  ***
    1    -263.7262258919599844     0.00e+00  3.07e-04  2.70e-03  2.93e-02  0.700   0.2
    2    -263.7271954156790343    -9.70e-04  2.60e-04  2.11e-03  2.14e-02  0.700   0.3
                               ***Turning on AO-DIIS***
    3    -263.7279392916001370    -7.44e-04  2.24e-04  1.93e-03  1.54e-02  0.700   0.2
    4    -263.7285001338479447    -5.61e-04  5.99e-04  5.16e-03  1.15e-02  0.000   0.2
                              *** Initializing SOSCF ***
---------------------------------------S-O-S-C-F--------------------------------------
Iteration    Energy (Eh)           Delta-E    RMSDP     MaxDP     MaxGrad    Time(sec)
--------------------------------------------------------------------------------------
    5    -263.7300609241564189    -1.56e-03  6.22e-05  7.27e-04  1.23e-03     0.2
               *** Restarting incremental Fock matrix formation ***
    6    -263.7300707049857351    -9.78e-06  2.52e-05  2.72e-04  2.33e-04     0.3
    7    -263.7300716988493150    -9.94e-07  1.52e-05  1.64e-04  7.79e-05     0.2
    8    -263.7300718713243555    -1.72e-07  2.43e-06  4.05e-05  2.77e-05     0.2
    9    -263.7300718778297437    -6.51e-09  8.78e-07  1.64e-05  1.86e-05     0.2
                 **** Energy Check signals convergence ****

               *****************************************************
               *                     SUCCESS                       *
               *           SCF CONVERGED AFTER   9 CYCLES          *
               *****************************************************

             **** ENERGY FILE WAS UPDATED (h2co3.en.tmp) ****

----------------
TOTAL SCF ENERGY
----------------

Total Energy       :       -263.73007188011837 Eh           -7176.46010 eV

Components:
Nuclear Repulsion  :        125.74978778249881 Eh            3421.82569 eV
Electronic Energy  :       -389.47985966261717 Eh          -10598.28579 eV
One Electron Energy:       -611.91188757001396 Eh          -16650.96898 eV
Two Electron Energy:        222.43202790739679 Eh            6052.68319 eV

Virial components:
Potential Energy   :       -527.54551961583877 Eh          -14355.24340 eV
Kinetic Energy     :        263.81544773572040 Eh            7178.78330 eV
Virial Ratio       :          1.99967638037751

---------------
SCF CONVERGENCE
---------------

  Last Energy change         ...    6.5054e-09  Tolerance :   1.0000e-08
  Last MAX-Density change    ...    1.6372e-05  Tolerance :   1.0000e-07
  Last RMS-Density change    ...    8.7750e-07  Tolerance :   5.0000e-09
  Last DIIS Error            ...    1.2281e-03  Tolerance :   5.0000e-07
  Last Orbital Gradient      ...    1.8593e-05  Tolerance :   1.0000e-05
  Last Orbital Rotation      ...    1.3434e-05  Tolerance :   1.0000e-05


Total SCF time: 0 days 0 hours 0 min 2 sec 
Finished LeanSCF after   2.4 sec

Maximum memory used throughout the entire LEANSCF-calculation: 8.7 MB

-------------------------   --------------------
FINAL SINGLE POINT ENERGY      -263.730071880118
-------------------------   --------------------

------------------------------------------------------------------------------
                         ORCA SCF GRADIENT CALCULATION
------------------------------------------------------------------------------

Nuc. rep. gradient        (SHARK) ... done (  0.0 sec)
HCore & Overlap gradient  (SHARK) ... done (  0.0 sec)
Two-electron gradient     (SHARK) ... done (  1.1 sec)

------------------
CARTESIAN GRADIENT
------------------

   1   C   :   -0.037147475   -0.000000000    0.000000000
   2   O   :    0.015167788   -0.000000000   -0.000000000
   3   O   :    0.011222616    0.006219255   -0.000000000
   4   O   :    0.011222616   -0.006219255   -0.000000000
   5   H   :   -0.000232772   -0.003272505    0.000000000
   6   H   :   -0.000232772    0.003272505    0.000000000

Difference to translation invariance:
           :    0.0000000000   -0.0000000000   -0.0000000000

Difference to rotation invariance:
           :    0.0000000000    0.0000000000   -0.0000000000

Norm of the Cartesian gradient     ...    0.0442806518
RMS gradient                       ...    0.0104370497
MAX gradient                       ...    0.0371474753

-------
TIMINGS
-------

Total SCF gradient time     ....        1.165 sec

Densities                   ....       0.000 sec  (  0.0%)
One electron gradient       ....       0.020 sec  (  1.7%)
Two electron gradient       ....       1.145 sec  ( 98.2%)

Maximum memory used throughout the entire SCFGRAD-calculation: 14.5 MB
------------------------------------------------------------------------------
                         ORCA GEOMETRY RELAXATION STEP
------------------------------------------------------------------------------

Reading the OPT-File                    .... done
Getting information on internals        .... done
Copying old internal coords+grads       .... done
Making the new internal coordinates     .... (2022 redundants) done
Validating the new internal coordinates .... (2022 redundants) done
Calculating the B-matrix                .... done
Calculating the G,G- and P matrices     .... done
Transforming gradient to internals      .... done
Projecting the internal gradient        .... done
Number of atoms                         ....   6
Number of internal coordinates          ....  14
Current Energy                          ....  -263.730071880 Eh
Current gradient norm                   ....     0.044280652 Eh/bohr
Maximum allowed component of the step   ....  0.300
Current trust radius                    ....  0.300
Updating the Hessian (BFGS)             .... done
Forming the augmented Hessian           .... done
Diagonalizing the augmented Hessian     .... done
Last element of RFO vector              ....  0.996696696
Lowest eigenvalues of augmented Hessian:
 -0.002349887  0.036418280  0.036418280  0.036418280  0.333623409
Length of the computed step             ....  0.081483054
The final length of the internal step   ....  0.081483054
Converting the step to Cartesian space:
 Initial RMS(Int)=    0.0217772622
Transforming coordinates:
 Iter   0:  RMS(Cart)=    0.0288821297 RMS(Int)=    2.3749210281
done
Storing new coordinates                 .... done
The predicted energy change is          ....    -0.001182745
Previously predicted energy change      ....    -0.009090000
Actually observed energy change         ....    -0.010878184
Ratio of predicted to observed change   ....     1.196719804
New trust radius                        ....     0.450000000

                                .--------------------.
          ----------------------|Geometry convergence|-------------------------
          Item                value                   Tolerance       Converged
          ---------------------------------------------------------------------
          Energy change      -0.0108781836            0.0000050000      NO
          RMS gradient        0.0080136636            0.0001000000      NO
          MAX gradient        0.0201005686            0.0003000000      NO
          RMS step            0.0217772622            0.0020000000      NO
          MAX step            0.0624279843            0.0040000000      NO
          -------------------------------------------------------------------------
          ........................................................
          Max(Bonds)      0.0126      Max(Angles)    3.58
          Max(Dihed)        0.00      Max(Improp)    0.00
          ---------------------------------------------------------------------

The optimization has not yet converged - more geometry cycles are needed


    ---------------------------------------------------------------------------
                         Redundant Internal Coordinates
                            (Angstroem and degrees)

        Definition                    Value    dE/dq     Step     New-Value
    ----------------------------------------------------------------------------
     1. B(O   1,C   0)                1.1952  0.015168 -0.0126    1.1826   
     2. B(O   2,C   0)                1.3053 -0.003531  0.0015    1.3067   
     3. B(O   3,C   0)                1.3053 -0.003531  0.0015    1.3067   
     4. B(H   4,O   2)                0.9423 -0.002639  0.0020    0.9443   
     5. B(H   5,O   3)                0.9423 -0.002639  0.0020    0.9443   
     6. A(O   1,C   0,O   3)          123.09 -0.010050    1.79    124.88   
     7. A(O   2,C   0,O   3)          113.83  0.020101   -3.58    110.25   
     8. A(O   1,C   0,O   2)          123.09 -0.010050    1.79    124.88   
     9. A(C   0,O   2,H   4)          106.39 -0.003471    0.54    106.93   
    10. A(C   0,O   3,H   5)          106.39 -0.003471    0.54    106.93   
    11. D(H   4,O   2,C   0,O   1)     -0.00 -0.000000    0.00      0.00   
    12. D(H   4,O   2,C   0,O   3)   -180.00  0.000000   -0.00   -180.00   
    13. D(H   5,O   3,C   0,O   1)      0.00  0.000000   -0.00     -0.00   
    14. D(H   5,O   3,C   0,O   2)    180.00 -0.000000    0.00    180.00   
    ----------------------------------------------------------------------------

Geometry step timings:
Preparation and reading OPT file:      0.000 s ( 3.051 %)
Internal coordinates            :      0.000 s ( 4.729 %)
B/P matrices and projection     :      0.000 s (16.018 %)
Hessian update/contruction      :      0.000 s (22.044 %)
Making the step                 :      0.000 s (11.060 %)
Converting the step to Cartesian:      0.000 s ( 4.348 %)
Storing new data                :      0.000 s ( 3.814 %)
Checking convergence            :      0.000 s (10.221 %)
Final printing                  :      0.000 s (24.714 %)
Total time                      :      0.001 s

Time for energy+gradient        :      3.949 s
Time for complete geometry iter :      3.977 s

         *************************************************************
         *                GEOMETRY OPTIMIZATION CYCLE   3            *
         *************************************************************
---------------------------------
CARTESIAN COORDINATES (ANGSTROEM)
---------------------------------
  C      0.082205    0.000000   -0.000000
  O      1.264787   -0.000000    0.000000
  O     -0.664987    1.072045   -0.000000
  O     -0.664987   -1.072045   -0.000000
  H     -0.081144    1.814238    0.000000
  H     -0.081144   -1.814238    0.000000

----------------------------
CARTESIAN COORDINATES (A.U.)
----------------------------
  NO LB      ZA    FRAG     MASS         X           Y           Z
   0 C     6.0000    0    12.011    0.155344    0.000000   -0.000000
   1 O     8.0000    0    15.999    2.390101   -0.000000    0.000000
   2 O     8.0000    0    15.999   -1.256643    2.025871   -0.000000
   3 O     8.0000    0    15.999   -1.256643   -2.025871   -0.000000
   4 H     1.0000    0     1.008   -0.153340    3.428414    0.000000
   5 H     1.0000    0     1.008   -0.153340   -3.428414    0.000000

--------------------------------
INTERNAL COORDINATES (ANGSTROEM)
--------------------------------
 C      0   0   0     0.000000000000     0.00000000     0.00000000
 O      1   0   0     1.182582192182     0.00000000     0.00000000
 O      1   2   0     1.306742184935   124.87564015     0.00000000
 O      1   2   3     1.306742184935   124.87564015   180.00000000
 H      3   1   2     0.944311007074   106.93418698     0.00000000
 H      4   1   2     0.944311007074   106.93418698     0.00000000

---------------------------
INTERNAL COORDINATES (A.U.)
---------------------------
 C      0   0   0     0.000000000000     0.00000000     0.00000000
 O      1   0   0     2.234756474076     0.00000000     0.00000000
 O      1   2   0     2.469384857169   124.87564015     0.00000000
 O      1   2   3     2.469384857169   124.87564015   180.00000000
 H      3   1   2     1.784489188616   106.93418698     0.00000000
 H      4   1   2     1.784489188616   106.93418698     0.00000000

------------------------------------------------------------------------------
                   ___                                                        
                  /   \      - P O W E R E D   B Y -                         
                 /     \                                                     
                 |  |  |   _    _      __       _____    __    __             
                 |  |  |  | |  | |    /  \     |  _  \  |  |  /  |          
                  \  \/   | |  | |   /    \    | | | |  |  | /  /          
                 / \  \   | |__| |  /  /\  \   | |_| |  |  |/  /          
                |  |  |   |  __  | /  /__\  \  |    /   |      \           
                |  |  |   | |  | | |   __   |  |    \   |  |\   \          
                \     /   | |  | | |  |  |  |  | |\  \  |  | \   \       
                 \___/    |_|  |_| |__|  |__|  |_| \__\ |__|  \__/        
                                                                              
                      - O R C A' S   B I G   F R I E N D -                    
                                      &                                       
                       - I N T E G R A L  F E E D E R -                       
                                                                              
 v1 FN, 2020, v2 2021, v3 2022-2024                                           
------------------------------------------------------------------------------


----------------------
SHARK INTEGRAL PACKAGE
----------------------

Number of atoms                             ...      6
Number of basis functions                   ...     84
Number of shells                            ...     40
Maximum angular momentum                    ...      2
Integral batch strategy                     ... SHARK/LIBINT Hybrid
RI-J (if used) integral strategy            ... SPLIT-RIJ (Revised 2003 algorithm where possible)
Printlevel                                  ...      1
Contraction scheme used                     ... SEGMENTED contraction
Prescreening option                         ... SCHWARTZ
   Thresh                                   ... 2.500e-11
   Tcut                                     ... 2.500e-12
   Tpresel                                  ... 2.500e-12 
Coulomb Range Separation                    ... NOT USED
Exchange Range Separation                   ... NOT USED
Multipole approximations                    ... NOT USED
Finite Nucleus Model                        ... NOT USED
CABS basis                                  ... NOT available
Auxiliary Coulomb fitting basis             ... NOT available
Auxiliary J/K fitting basis                 ... NOT available
Auxiliary Correlation fitting basis         ... NOT available
Auxiliary 'external' fitting basis          ... NOT available

Checking pre-screening integrals            ... done (  0.0 sec) Dimension = 40
   => SHARK Basis and OBASIS are compatible. Storing Pre-screening
Shell pair information
Shell pair cut-off parameter TPreSel        ...   2.5e-12
Total number of shell pairs                 ...       820
Shell pairs after pre-screening             ...       793
Total number of primitive shell pairs       ...      3330
Primitive shell pairs kept                  ...      2531
          la=0 lb=0:    236 shell pairs
          la=1 lb=0:    298 shell pairs
          la=1 lb=1:    105 shell pairs
          la=2 lb=0:     88 shell pairs
          la=2 lb=1:     56 shell pairs
          la=2 lb=2:     10 shell pairs

Checking whether 4 symmetric matrices of dimension 84 fit in memory
:Max Core in MB      =   4096.00
 MB in use           =      2.31
 MB left             =   4093.69
 MB needed           =      0.11
 Data fit in memory  = YES
Calculating Nuclear repulsion               ... done (  0.0 sec) ENN=    126.055072395766 Eh

Diagonalization of the overlap matrix:
Smallest eigenvalue                        ... 8.127e-03
Time for diagonalization                   ...    0.001 sec
Threshold for overlap eigenvalues          ... 1.000e-07
Number of eigenvalues below threshold      ... 0
Time for construction of square roots      ...    0.000 sec
Total time needed                          ...    0.002 sec

-------------------
DFT GRID GENERATION
-------------------

General Integration Accuracy     IntAcc      ... 4.388
Radial Grid Type                 RadialGrid  ... OptM3 with GC (2021)
Angular Grid (max. ang.)         AngularGrid ... 4 (Lebedev-302)
Angular grid pruning method      GridPruning ... 4 (adaptive)
Weight generation scheme         WeightScheme... mBecke (2022)
Basis function cutoff            BFCut       ... 1.0000e-11
Integration weight cutoff        WCut        ... 1.0000e-14
Partially contracted basis set               ... off
Rotationally invariant grid construction     ... off
Angular grids for H and He will be reduced by one unit

Total number of grid points                  ...    30937
Total number of batches                      ...      486
Average number of points per batch           ...       63
Average number of grid points per atom       ...     5156
Grids setup in   0.2 sec
Initializing property integral containers    ... done (  0.0 sec)

SHARK setup successfully completed in   0.2 seconds

Maximum memory used throughout the entire STARTUP-calculation: 12.2 MB
Occupation numbers will be reassigned to an Aufbau configuration
             **** ENERGY FILE WAS UPDATED (h2co3.en.tmp) ****
Finished Guess after   0.0 sec
Maximum memory used throughout the entire GUESS-calculation: 5.2 MB
----------------------------------------D-I-I-S--------------------------------------------
Iteration    Energy (Eh)           Delta-E    RMSDP     MaxDP     DIISErr   Damp  Time(sec)
-------------------------------------------------------------------------------------------
               ***  Starting incremental Fock matrix formation  ***
    1    -263.7299700994542491     0.00e+00  1.58e-04  1.43e-03  1.77e-02  0.700   0.2
    2    -263.7303004040147698    -3.30e-04  1.40e-04  1.21e-03  1.42e-02  0.700   0.2
                               ***Turning on AO-DIIS***
    3    -263.7305658129674839    -2.65e-04  1.33e-04  1.25e-03  1.12e-02  0.700   0.2
    4    -263.7307715366654293    -2.06e-04  3.61e-04  3.44e-03  8.26e-03  0.000   0.2
                              *** Initializing SOSCF ***
---------------------------------------S-O-S-C-F--------------------------------------
Iteration    Energy (Eh)           Delta-E    RMSDP     MaxDP     MaxGrad    Time(sec)
--------------------------------------------------------------------------------------
    5    -263.7313709541787148    -5.99e-04  3.64e-05  3.57e-04  6.62e-04     0.2
               *** Restarting incremental Fock matrix formation ***
    6    -263.7313740117720045    -3.06e-06  1.60e-05  1.82e-04  1.72e-04     0.2
    7    -263.7313744089684633    -3.97e-07  1.23e-05  1.44e-04  7.58e-05     0.2
    8    -263.7313745025555818    -9.36e-08  2.35e-06  2.53e-05  3.49e-05     0.2
    9    -263.7313745127187303    -1.02e-08  8.38e-07  8.53e-06  7.85e-06     0.2
   10    -263.7313745140772880    -1.36e-09  4.14e-07  5.26e-06  2.65e-06     0.3
                 **** Energy Check signals convergence ****

               *****************************************************
               *                     SUCCESS                       *
               *           SCF CONVERGED AFTER  10 CYCLES          *
               *****************************************************

             **** ENERGY FILE WAS UPDATED (h2co3.en.tmp) ****

----------------
TOTAL SCF ENERGY
----------------

Total Energy       :       -263.73137451437378 Eh           -7176.49555 eV

Components:
Nuclear Repulsion  :        126.05507239576636 Eh            3430.13290 eV
Electronic Energy  :       -389.78644691014011 Eh          -10606.62845 eV
One Electron Energy:       -612.53384670404955 Eh          -16667.89335 eV
Two Electron Energy:        222.74739979390944 Eh            6061.26490 eV

Virial components:
Potential Energy   :       -527.59222792077549 Eh          -14356.51439 eV
Kinetic Energy     :        263.86085340640170 Eh            7180.01885 eV
Virial Ratio       :          1.99950929101321

---------------
SCF CONVERGENCE
---------------

  Last Energy change         ...    1.3586e-09  Tolerance :   1.0000e-08
  Last MAX-Density change    ...    5.2551e-06  Tolerance :   1.0000e-07
  Last RMS-Density change    ...    4.1367e-07  Tolerance :   5.0000e-09
  Last DIIS Error            ...    6.6216e-04  Tolerance :   5.0000e-07
  Last Orbital Gradient      ...    2.6484e-06  Tolerance :   1.0000e-05
  Last Orbital Rotation      ...    9.8179e-06  Tolerance :   1.0000e-05


Total SCF time: 0 days 0 hours 0 min 2 sec 
Finished LeanSCF after   2.5 sec

Maximum memory used throughout the entire LEANSCF-calculation: 8.7 MB

-------------------------   --------------------
FINAL SINGLE POINT ENERGY      -263.731374514374
-------------------------   --------------------

------------------------------------------------------------------------------
                         ORCA SCF GRADIENT CALCULATION
------------------------------------------------------------------------------

Nuc. rep. gradient        (SHARK) ... done (  0.0 sec)
HCore & Overlap gradient  (SHARK) ... done (  0.0 sec)
Two-electron gradient     (SHARK) ... done (  1.2 sec)

------------------
CARTESIAN GRADIENT
------------------

   1   C   :   -0.005529797    0.000000000   -0.000000000
   2   O   :   -0.001177942   -0.000000000    0.000000000
   3   O   :    0.001676543   -0.004677814    0.000000000
   4   O   :    0.001676543    0.004677814    0.000000000
   5   H   :    0.001677326   -0.001683655    0.000000000
   6   H   :    0.001677326    0.001683655    0.000000000

Difference to translation invariance:
           :    0.0000000000   -0.0000000000    0.0000000000

Difference to rotation invariance:
           :   -0.0000000000   -0.0000000000    0.0000000000

Norm of the Cartesian gradient     ...    0.0096253788
RMS gradient                       ...    0.0022687235
MAX gradient                       ...    0.0055297968

-------
TIMINGS
-------

Total SCF gradient time     ....        1.225 sec

Densities                   ....       0.000 sec  (  0.0%)
One electron gradient       ....       0.023 sec  (  1.9%)
Two electron gradient       ....       1.202 sec  ( 98.1%)

Maximum memory used throughout the entire SCFGRAD-calculation: 14.5 MB
------------------------------------------------------------------------------
                         ORCA GEOMETRY RELAXATION STEP
------------------------------------------------------------------------------

Reading the OPT-File                    .... done
Getting information on internals        .... done
Copying old internal coords+grads       .... done
Making the new internal coordinates     .... (2022 redundants) done
Validating the new internal coordinates .... (2022 redundants) done
Calculating the B-matrix                .... done
Calculating the G,G- and P matrices     .... done
Transforming gradient to internals      .... done
Projecting the internal gradient        .... done
Number of atoms                         ....   6
[...]
                        -----------------------------------------
Total Dipole Moment    :     -0.087221810      -0.000000000       0.000000000
                        -----------------------------------------
Magnitude (a.u.)       :      0.087221810
Magnitude (Debye)      :      0.221700222



--------------------
Rotational spectrum 
--------------------
 
Rotational constants in cm-1:             0.419439             0.386653             0.201189 
Rotational constants in MHz :         12574.450852         11591.560152          6031.508609 

Dipole components along the rotational axes: 
x,y,z [a.u.] :     0.000000    -0.087222     0.000000 
x,y,z [Debye]:     0.000000    -0.221700     0.000000 

 

Dipole moment calculation done in   0.0 sec 

Maximum memory used throughout the entire PROP-calculation: 3.2 MB

----------------------------------------------------------------------------
                           ORCA NUMERICAL FREQUENCIES
----------------------------------------------------------------------------

Number of atoms                ... 6
Central differences            ... used
Translation invariance         ... used
Number of displacements        ... 36 - 6
Numerical increment            ... 5.000e-03 bohr
IR-spectrum generation         ... on
Raman-spectrum generation      ... off
Surface Crossing Hessian       ... off

The output will be reduced. Please look at the following files:
SCF program output             ... >h2co3.lastscf
Integral program output        ... >h2co3.lastint
Gradient program output        ... >h2co3.lastgrad
Dipole moment program output   ... >h2co3.lastmom

	<< Calculating gradient on displaced geometry   1 (of  30) >>
	<< Calculating gradient on displaced geometry   2 (of  30) >>
	<< Calculating gradient on displaced geometry   3 (of  30) >>
	<< Calculating gradient on displaced geometry   4 (of  30) >>
	<< Calculating gradient on displaced geometry   5 (of  30) >>
	<< Calculating gradient on displaced geometry   6 (of  30) >>
	<< Calculating gradient on displaced geometry   7 (of  30) >>
	<< Calculating gradient on displaced geometry   8 (of  30) >>
	<< Calculating gradient on displaced geometry   9 (of  30) >>
	<< Calculating gradient on displaced geometry  10 (of  30) >>
	<< Calculating gradient on displaced geometry  11 (of  30) >>
	<< Calculating gradient on displaced geometry  12 (of  30) >>
	<< Calculating gradient on displaced geometry  13 (of  30) >>
	<< Calculating gradient on displaced geometry  14 (of  30) >>
	<< Calculating gradient on displaced geometry  15 (of  30) >>
	<< Calculating gradient on displaced geometry  16 (of  30) >>
	<< Calculating gradient on displaced geometry  17 (of  30) >>
	<< Calculating gradient on displaced geometry  18 (of  30) >>
	<< Calculating gradient on displaced geometry  19 (of  30) >>
	<< Calculating gradient on displaced geometry  20 (of  30) >>
	<< Calculating gradient on displaced geometry  21 (of  30) >>
	<< Calculating gradient on displaced geometry  22 (of  30) >>
	<< Calculating gradient on displaced geometry  23 (of  30) >>
	<< Calculating gradient on displaced geometry  24 (of  30) >>
	<< Calculating gradient on displaced geometry  25 (of  30) >>
	<< Calculating gradient on displaced geometry  26 (of  30) >>
	<< Calculating gradient on displaced geometry  27 (of  30) >>
	<< Calculating gradient on displaced geometry  28 (of  30) >>
	<< Calculating gradient on displaced geometry  29 (of  30) >>
	<< Calculating gradient on displaced geometry  30 (of  30) >>

-----------------------
VIBRATIONAL FREQUENCIES
-----------------------

Scaling factor for frequencies =  1.000000000  (already applied!)

     0:       0.00 cm**-1
     1:       0.00 cm**-1
     2:       0.00 cm**-1
     3:       0.00 cm**-1
     4:       0.00 cm**-1
     5:       0.00 cm**-1
     6:     575.16 cm**-1
     7:     605.31 cm**-1
     8:     630.89 cm**-1
     9:     670.69 cm**-1
    10:     908.08 cm**-1
    11:    1085.77 cm**-1
    12:    1308.95 cm**-1
    13:    1421.88 cm**-1
    14:    1610.71 cm**-1
    15:    2022.10 cm**-1
    16:    4149.36 cm**-1
    17:    4152.46 cm**-1


------------
NORMAL MODES
------------

These modes are the Cartesian displacements weighted by the diagonal matrix
M(i,i)=1/sqrt(m[i]) where m[i] is the mass of the displaced atom
Thus, these vectors are normalized but *not* orthogonal

                  0          1          2          3          4          5    
      0       0.000000   0.000000   0.000000   0.000000   0.000000   0.000000
      1       0.000000   0.000000   0.000000   0.000000   0.000000   0.000000
      2       0.000000   0.000000   0.000000   0.000000   0.000000   0.000000
      3       0.000000   0.000000   0.000000   0.000000   0.000000   0.000000
      4       0.000000   0.000000   0.000000   0.000000   0.000000   0.000000
      5       0.000000   0.000000   0.000000   0.000000   0.000000   0.000000
      6       0.000000   0.000000   0.000000   0.000000   0.000000   0.000000
      7       0.000000   0.000000   0.000000   0.000000   0.000000   0.000000
      8       0.000000   0.000000   0.000000   0.000000   0.000000   0.000000
      9       0.000000   0.000000   0.000000   0.000000   0.000000   0.000000
     10       0.000000   0.000000   0.000000   0.000000   0.000000   0.000000
     11       0.000000   0.000000   0.000000   0.000000   0.000000   0.000000
     12       0.000000   0.000000   0.000000   0.000000   0.000000   0.000000
     13       0.000000   0.000000   0.000000   0.000000   0.000000   0.000000
     14       0.000000   0.000000   0.000000   0.000000   0.000000   0.000000
     15       0.000000   0.000000   0.000000   0.000000   0.000000   0.000000
     16       0.000000   0.000000   0.000000   0.000000   0.000000   0.000000
     17       0.000000   0.000000   0.000000   0.000000   0.000000   0.000000
                  6          7          8          9         10         11    
      0      -0.000000  -0.201059   0.000000   0.000110  -0.000000   0.149159
      1       0.000000   0.000003   0.000000  -0.161181  -0.000000   0.000053
      2      -0.001122   0.000000   0.056612   0.000000  -0.830585   0.000000
      3      -0.000000  -0.214787   0.000000   0.000028   0.000000   0.227943
      4      -0.000000  -0.000016  -0.000000   0.353609   0.000000  -0.000182
      5       0.000201   0.000000   0.009376   0.000000   0.253918   0.000000
      6      -0.000000   0.144886  -0.000000   0.210430   0.000000  -0.146230
      7       0.000000   0.259130  -0.000000  -0.095735   0.000000   0.283714
      8      -0.075389   0.000000   0.018162  -0.000000   0.203501  -0.000000
      9       0.000000   0.144915  -0.000000  -0.210515  -0.000000  -0.145817
     10       0.000000  -0.259117   0.000000  -0.095989  -0.000000  -0.283525
     11       0.075591   0.000000   0.018883   0.000000   0.202136   0.000000
     12      -0.000000   0.602582  -0.000000   0.515306   0.000000  -0.379519
     13       0.000000  -0.074080   0.000000  -0.324073  -0.000000   0.465230
     14       0.706539  -0.000000  -0.702334  -0.000000  -0.292101   0.000000
     15       0.000000   0.602559  -0.000000  -0.515705   0.000000  -0.380335
     16       0.000000   0.074086   0.000000  -0.324790   0.000000  -0.465982
     17      -0.699574  -0.000000  -0.709047  -0.000000  -0.279391  -0.000000
                 12         13         14         15         16         17    
      0       0.000051   0.011228  -0.000098   0.698698  -0.000001  -0.000811
      1      -0.119508   0.000041  -0.423917  -0.000090   0.002428  -0.000052
      2       0.000000   0.000000  -0.000000  -0.000000  -0.000000  -0.000000
      3      -0.000104  -0.112124   0.000073  -0.398776  -0.000030  -0.001205
      4      -0.011511  -0.000036   0.050533  -0.000017  -0.000614   0.000005
      5       0.000000   0.000000  -0.000000   0.000000  -0.000000  -0.000000
      6      -0.115112   0.085818  -0.002472  -0.083061   0.024744  -0.025546
      7       0.076166  -0.004164   0.107054   0.033057   0.034765  -0.037460
      8      -0.000000  -0.000000   0.000000  -0.000000  -0.000000   0.000000
      9       0.115137   0.085891   0.002512  -0.083159  -0.025760  -0.024531
     10       0.076361   0.004188   0.106972  -0.033057   0.036240   0.036037
     11       0.000000   0.000000  -0.000000  -0.000000  -0.000000  -0.000000
     12       0.555300  -0.539668  -0.464920   0.320463  -0.403354   0.420028
     13      -0.407345   0.441350   0.426270  -0.254877  -0.561629   0.584486
     14       0.000000  -0.000000  -0.000000   0.000000   0.000000  -0.000000
     15      -0.554645  -0.539848   0.464300   0.321698   0.419975   0.403588
     16      -0.406850  -0.441654   0.425903   0.256224  -0.584547  -0.561346
     17      -0.000000  -0.000000   0.000000   0.000000   0.000000   0.000000


-----------
IR SPECTRUM
-----------

 Mode   freq       eps      Int      T**2         TX        TY        TZ
       cm**-1   L/(mol*cm) km/mol    a.u.
----------------------------------------------------------------------------
  6:    575.16   0.000001    0.00  0.000001  ( 0.000000  0.000000  0.000721)
  7:    605.31   0.001216    6.14  0.000627  ( 0.025034  0.000004 -0.000000)
  8:    630.89   0.050322  254.30  0.024891  (-0.000000  0.000000 -0.157769)
  9:    670.69   0.013591   68.68  0.006324  ( 0.000103 -0.079521 -0.000000)
 10:    908.08   0.021797  110.15  0.007491  (-0.000000  0.000000 -0.086548)
 11:   1085.77   0.002943   14.88  0.000846  ( 0.029086 -0.000068 -0.000000)
 12:   1308.95   0.092561  467.77  0.022067  ( 0.000137 -0.148551 -0.000000)
 13:   1421.88   0.006608   33.39  0.001450  (-0.038082 -0.000044 -0.000000)
 14:   1610.71   0.044354  224.15  0.008593  (-0.000096 -0.092700  0.000000)
 15:   2022.10   0.141086  712.99  0.021773  ( 0.147558  0.000032  0.000000)
 16:   4149.36   0.050552  255.47  0.003802  ( 0.000429 -0.061658  0.000000)
 17:   4152.46   0.007089   35.83  0.000533  ( 0.023050  0.001214  0.000000)

* The epsilon (eps) is given for a Dirac delta lineshape.
** The dipole moment derivative (T) already includes vibrational overlap.

The first frequency considered to be a vibration is 6
The total number of vibrations considered is 12


--------------------------
THERMOCHEMISTRY AT 298.15K
--------------------------

Temperature         ...   298.15 K
Pressure            ...     1.00 atm
Total Mass          ...    62.02 AMU
Quasi RRHO          ...     True
Cut-Off Frequency   ...     1.00 cm^-1

Throughout the following assumptions are being made:
  (1) The electronic state is orbitally nondegenerate
  (2) There are no thermally accessible electronically excited states
  (3) Hindered rotations indicated by low frequency modes are not
      treated as such but are treated as vibrations and this may
      cause some error
  (4) All equations used are the standard statistical mechanics
      equations for an ideal gas
  (5) All vibrations are strictly harmonic

freq.     575.16  E(vib)   ...       0.11 
freq.     605.31  E(vib)   ...       0.10 
freq.     630.89  E(vib)   ...       0.09 
freq.     670.69  E(vib)   ...       0.08 
freq.     908.08  E(vib)   ...       0.03 
freq.    1085.77  E(vib)   ...       0.02 
freq.    1308.95  E(vib)   ...       0.01 
freq.    1421.88  E(vib)   ...       0.00 
freq.    1610.71  E(vib)   ...       0.00 
freq.    2022.10  E(vib)   ...       0.00 
freq.    4149.36  E(vib)   ...       0.00 
freq.    4152.46  E(vib)   ...       0.00 

------------
INNER ENERGY
------------

The inner energy is: U= E(el) + E(ZPE) + E(vib) + E(rot) + E(trans)
    E(el)   - is the total energy from the electronic structure calculation
              = E(kin-el) + E(nuc-el) + E(el-el) + E(nuc-nuc)
    E(ZPE)  - the the zero temperature vibrational energy from the frequency calculation
    E(vib)  - the the finite temperature correction to E(ZPE) due to population
              of excited vibrational states
    E(rot)  - is the rotational thermal energy
    E(trans)- is the translational thermal energy

Summary of contributions to the inner energy U:
Electronic energy                ...   -263.73154467 Eh
Zero point energy                ...      0.04360723 Eh      27.36 kcal/mol
Thermal vibrational correction   ...      0.00069997 Eh       0.44 kcal/mol
Thermal rotational correction    ...      0.00141627 Eh       0.89 kcal/mol
Thermal translational correction ...      0.00141627 Eh       0.89 kcal/mol
-----------------------------------------------------------------------
Total thermal energy                   -263.68440493 Eh


Summary of corrections to the electronic energy:
(perhaps to be used in another calculation)
Total thermal correction                  0.00353251 Eh       2.22 kcal/mol
Non-thermal (ZPE) correction              0.04360723 Eh      27.36 kcal/mol
-----------------------------------------------------------------------
Total correction                          0.04713974 Eh      29.58 kcal/mol


--------
ENTHALPY
--------

The enthalpy is H = U + kB*T
                kB is Boltzmann's constant
Total thermal energy              ...   -263.68440493 Eh 
Thermal Enthalpy correction       ...      0.00094421 Eh       0.59 kcal/mol
-----------------------------------------------------------------------
Total Enthalpy                    ...   -263.68346072 Eh


Note: Rotational entropy computed according to Herzberg 
Infrared and Raman Spectra, Chapter V,1, Van Nostrand Reinhold, 1945 
Point Group:  C2v, Symmetry Number:   2  
Rotational constants in cm-1:     0.419439     0.386653     0.201190 

Vibrational entropy computed according to the QRRHO of S. Grimme
Chem.Eur.J. 2012 18 9955 using a reference frequency of 100.0 cm-1


-------
ENTROPY
-------

The entropy contributions are T*S = T*(S(el)+S(vib)+S(rot)+S(trans))
     S(el)   - electronic entropy
     S(vib)  - vibrational entropy
     S(rot)  - rotational entropy
     S(trans)- translational entropy
The entropies will be listed as multiplied by the temperature to get
units of energy

Electronic entropy                ...      0.00000000 Eh      0.00 kcal/mol
Vibrational entropy               ...      0.00091786 Eh      0.58 kcal/mol
Rotational entropy                ...      0.01047212 Eh      6.57 kcal/mol
Translational entropy             ...      0.01819476 Eh     11.42 kcal/mol
-----------------------------------------------------------------------
Final entropy term                ...      0.02958474 Eh     18.56 kcal/mol

In case the symmetry of your molecule has not been determined correctly
or in case you have a reason to use a different symmetry number we print 
out the resulting rotational entropy values for sn=1,12:

 non-linear molecules -----------------------------------
|  sn= 1 | S(rot)=       0.01112657 Eh      6.98 kcal/mol|
|  sn= 2 | S(rot)=       0.01047212 Eh      6.57 kcal/mol|
|  sn= 3 | S(rot)=       0.01008929 Eh      6.33 kcal/mol|
|  sn= 4 | S(rot)=       0.00981766 Eh      6.16 kcal/mol|
|  sn= 5 | S(rot)=       0.00960697 Eh      6.03 kcal/mol|
|  sn= 6 | S(rot)=       0.00943483 Eh      5.92 kcal/mol|
|  sn= 7 | S(rot)=       0.00928928 Eh      5.83 kcal/mol|
|  sn= 8 | S(rot)=       0.00916320 Eh      5.75 kcal/mol|
|  sn= 9 | S(rot)=       0.00905200 Eh      5.68 kcal/mol|
|  sn=10 | S(rot)=       0.00895252 Eh      5.62 kcal/mol|
|  sn=11 | S(rot)=       0.00886253 Eh      5.56 kcal/mol|
|  sn=12 | S(rot)=       0.00878037 Eh      5.51 kcal/mol|
 linear molecules ---------------------------------------
|  Dinfh | S(rot)=       0.00683981 Eh      4.29 kcal/mol|
|  Cinfv | S(rot)=       0.00749426 Eh      4.70 kcal/mol|
 --------------------------------------------------------


-------------------
GIBBS FREE ENERGY
-------------------

The Gibbs free energy is G = H - T*S

Total enthalpy                    ...   -263.68346072 Eh 
Total entropy correction          ...     -0.02958474 Eh    -18.56 kcal/mol
-----------------------------------------------------------------------
Final Gibbs free energy         ...   -263.71304545 Eh

For completeness - the Gibbs free energy minus the electronic energy
G-E(el)                           ...      0.01849921 Eh     11.61 kcal/mol



--------------------------------
SUGGESTED CITATIONS FOR THIS RUN
--------------------------------

Below you find a list of papers that are relevant to this ORCA run
We neither can nor want to force you to cite these papers, but we appreciate if you do
You receive ORCA, which is the product of decades of hard work by many enthusiastic individuals, for free
The only thing we kindly ask in return is that you cite our papers,
We deeply appreciate it, if you show your appreciation for ORCA by not just citing the generic ORCA reference.

Please note that relegating all ORCA citations to the supporting information does *not* help us.
SI sections are not indexed - citations you put there will not count into any citation statistics
But we need these citations in order to attract the funding resources that allow us to do what we are doing

Therefore, if you are a happy ORCA user, please consider citing a few of the papers listed below in the main body of your paper

In addition to the list printed below, the program has created the file h2co3.bibtex that contains the list in bibtex format
You can import this file easily into all common literature databanks and citation aid programs


List of essential papers. We consider these as the minimum necessary citations

  1. Neese, F.
     Software update: the ORCA program system, version 6.0
     WIRES Comput. Molec. Sci. 2025 15(1), e70019
     doi.org/10.1002/wcms.7019

List of papers to cite with high priority. The work reported in these papers was absolutely
necessary for this run to complete.
Our perspective: the developers of density functionals and basis sets usually get cited in chemistry papers
Good! But without the algorithms to do something with them, the functionals or basis sets would not do anything.
Hence, in our opinion, the algorithm design and method developments papers are equally worthy of getting cited

  1. Neese, F.
     The SHARK Integral Generation and Digestion System
     J. Comp. Chem. 2022 44(3), 381
     doi.org/10.1002/jcc.26942

List of suggested additional citations. These are papers that are important in the 'surrounding' of 
of this run, or papers that preceded the highly important papers. If you like your results we are grateful for a citation.

  1. Neese, F.
     The ORCA program system
     WIRES Comput. Molec. Sci. 2012 2(1), 73-78
     doi.org/10.1002/wcms.81
  2. Neese, F.
     Software update: the ORCA program system, version 4.0
     WIRES Comput. Molec. Sci. 2018 8(1), 1-6
     doi.org/10.1002/wcms.1327
  3. Neese, F.; Wennmohs, F.; Becker, U.; Riplinger, C.
     The ORCA quantum chemistry program package
     J. Chem. Phys. 2020 152(22), 224108
     doi.org/10.1063/5.0004608
  4. Neese, F.
     Software update: The ORCA program system—Version 5.0
     WIRES Comput. Molec. Sci. 2022 12(1), e1606
     doi.org/10.1002/wcms.1606

List of optional additional citations

  1. Neese, F.
     Approximate second-order SCF convergence for spin unrestricted wavefunctions
     Chem. Phys. Lett. 2000 325(1-3), 93-98
     doi.org/10.1016/s0009-2614(00)00662-x

Timings for individual modules:

Sum of individual times          ...      130.767 sec (=   2.179 min)
Startup calculation              ...        1.679 sec (=   0.028 min)   1.3 %
SCF iterations                   ...       14.631 sec (=   0.244 min)  11.2 %
Property calculations            ...        0.037 sec (=   0.001 min)   0.0 %
SCF Gradient evaluation          ...        7.547 sec (=   0.126 min)   5.8 %
Geometry relaxation              ...        0.013 sec (=   0.000 min)   0.0 %
Numerical frequency calculation  ...      106.860 sec (=   1.781 min)  81.7 %
                             ****ORCA TERMINATED NORMALLY****
TOTAL RUN TIME: 0 days 0 hours 2 minutes 8 seconds 801 msec
