
                                 *****************
                                 * O   R   C   A *
                                 *****************

                                            #,                                       
                                            ###                                      
                                            ####                                     
                                            #####                                    
                                            ######                                   
                                           ########,                                 
                                     ,,################,,,,,                         
                               ,,#################################,,                 
                          ,,##########################################,,             
                       ,#########################################, ''#####,          
                    ,#############################################,,   '####,        
                  ,##################################################,,,,####,       
                ,###########''''           ''''###############################       
              ,#####''   ,,,,##########,,,,          '''####'''          '####       
            ,##' ,,,,###########################,,,                        '##       
           ' ,,###''''                  '''############,,,                           
         ,,##''                                '''############,,,,        ,,,,,,###''
      ,#''                                            '''#######################'''  
     '                                                          ''''####''''         
             ,#######,   #######,   ,#######,      ##                                
            ,#'     '#,  ##    ##  ,#'     '#,    #''#        ,####,    ,#,          
            ##       ##  ##   ,#'  ##            #'  '#       #'       ,# #          
            ##       ##  #######   ##           ,######,      #####,      #          
            '#,     ,#'  ##    ##  '#,     ,#' ,#      #,     #,   #      #          
             '#######'   ##     ##  '#######'  #'      '#     '####' #    #          



                #########################################################
                #                        -***-                          #
                #          Department of theory and spectroscopy        #
                #                                                       #
                #                      Frank Neese                      #
                #                                                       #
                #     Directorship, Architecture, Infrastructure        #
                #                    SHARK, DRIVERS                     #
                #        Core code/Algorithms in most modules           #
                #                                                       #
                #        Max Planck Institute fuer Kohlenforschung      #
                #                Kaiser Wilhelm Platz 1                 #
                #                 D-45470 Muelheim/Ruhr                 #
                #                      Germany                          #
                #                                                       #
                #                  All rights reserved                  #
                #                        -***-                          #
                #########################################################


                         Program Version 6.1.0  -  RELEASE   -
                                (GIT: $679e74b$)
                          ($2025-06-10 18:02:51 +0200$)


 With contributions from (in alphabetic order):
[Max-Planck-Institut fuer Kohlenforschung]                               
  Daniel Aravena         : Magnetic Suceptibility                        
  Michael Atanasov       : Ab Initio Ligand Field Theory (pilot matlab implementation)
  Alexander A. Auer      : GIAO ZORA, VPT2 properties, NMR spectrum      
  Ute Becker             : All parallelization in ORCA, NUMFREQ, NUMCALC 
  Giovanni Bistoni       : ED, misc. LED, open-shell LED, HFLD           
  Dmytro Bykov           : pre 5.0 version of the SCF Hessian            
  Marcos Casanova-Páez   : Triplet and SCS-CIS(D). UHF-(DLPNO)-IP/EA/STEOM-CCSD. UHF-CVS-IP/STEOM-CCSD   
  Vijay G. Chilkuri      : MRCI spin determinant printing, contributions to CSF-ICE 
  Pauline Colinet        : FMM embedding                                 
  Dipayan Datta          : RHF DLPNO-CCSD density                        
  Achintya Kumar Dutta   : EOM-CC, STEOM-CC                              
  Nicolas Foglia         : Exact transition moments, OPA infrastructure, MCD improvements    
  Dmitry Ganyushin       : Spin-Orbit,Spin-Spin,Magnetic field MRCI      
  Miquel Garcia-Rates    : C-PCM and meta-GGA Hessian, CCSD/C-PCM, Gaussian charge scheme 
  Tiago L. C. Gouveia    : GS-ROHF, GS-ROCIS                             
  Yang Guo               : DLPNO-NEVPT2, F12-NEVPT2, CIM, IAO-localization        
  Andreas Hansen         : Spin unrestricted coupled pair/coupled cluster methods 
  Ingolf Harden          : AUTO-CI MPn and infrastructure                
  Benjamin Helmich-Paris : MC-RPA, TRAH-(SCF,CASSCF), AVAS, COSX integrals, SCF dyn. polar., MC-PDFT, srDFT 
  Lee Huntington         : MR-EOM, pCC                                   
  Robert Izsak           : Overlap fitted RIJCOSX, COSX-SCS-MP3, EOM     
  Riya Kayal             : Wick's Theorem for AUTO-CI, AUTO-CI UHF-CCSDT 
  Emily Kempfer          : AUTO-CI RHF CISDT and CCSDT, approximate NEVPT4
  Christian Kollmar      : KDIIS, OOCD, Brueckner-CCSD(T), CCSD density, CASPT2, CASPT2-K, improved NEVPT2 
  Axel Koslowski         : Symmetry handling                             
  Simone Kossmann        : meta-GGA functionals, TD-DFT gradient, OOMP2, (MP2 Hessian; deprecated post 5.0) 
  Lucas Lang             : DCDCAS, Hyperfine gauge corrections, ICE-SOC+SSC
  Marvin Lechner         : AUTO-CI (C++ implementation), FIC-MRCC        
  Spencer Leger          : CASSCF response                               
  Dagmar Lenk            : GEPOL surface, SMD, ORCA-2-JSON               
  Dimitrios Liakos       : Extrapolation schemes; Compound Job, Property file
  Dimitrios Manganas     : Further ROCIS development; embedding schemes. LFT, Crystal Embedding 
  Dimitrios Pantazis     : SARC Basis sets                               
  Anastasios Papadopoulos: AUTO-CI, single reference methods and gradients 
  Taras Petrenko         : pre 6.0 DFT Hessian and TD-DFT gradient,  ECA, NRVS 
  Petra Pikulova         : Analytic Raman intensities                    
  Peter Pinski           : DLPNO-MP2, DLPNO-MP2 Gradient                 
  Shashank Vittal Rao    : ES-AILFT, MagRelax                            
  Christoph Reimann      : Effective Core Potentials                     
  Marius Retegan         : Local ZFS, SOC                                
  Christoph Riplinger    : Optimizer, TS searches, QM/MM, DLPNO-CCSD(T), (RO)-DLPNO pert. Triples 
  Michael Roemelt        : Original ROCIS implementation, recursive CI coupling coefficients
  Masaaki Saitow         : Open-shell DLPNO-CCSD energy and density      
  Barbara Sandhoefer     : DKH picture change effects                    
  Yorick L. A. Schmerwitz: GMF and freeze-and-release deltaSCF, NEB S-IDPP initial path                    
  Kantharuban Sivalingam : CASSCF convergence/infrastructure, NEVPT2, NEVPT3, NEVPT4(SD), FIC-MRCI and CEPA variants
  Bernardo de Souza      : ESD, SOC TD-DFT                               
  Georgi L. Stoychev     : AutoAux, RI-MP2 NMR, DLPNO-MP2 response, X2C  
  Van Anh Tran           : RI-MP2 g-tensors                              
  Willem Van den Heuvel  : Paramagnetic NMR                              
  Zikuan Wang            : NOTCH, Electric field optimization            
  Frank Wennmohs         : Technical directorship and infrastructure     
  Hang Xu                : AUTO-CI-Response properties                   
                                                                         
[FACCTs GmbH]                                                            
  Markus Bursch, Nicolas Foglia, Miquel Garcia-Rates, Ingolf Harden, Hagen Neugebauer, Anastasios Papadopoulos, 
  Christoph Riplinger, Bernardo de Souza, Georgi L. Stoychev                                                    
                                                                 
  APM, various basis sets, CI-OPT, improved COSX, DLPNO-Multilevel,           
  DOCKER, DRACO, updates on ESD, Fragmentator, GOAT, IRC, LR-CPCM, L-BFGS, MBIS, meta-GGA TD-DFT gradient, ML-optimized integration grids, 
  MM, NACMEs, nearIR, NEB, NEB-TS, NL-DFT gradient (VV10), 2- and 3-layer-ONIOM, interface openCOSMO-RS, QMMM,   
  Crystal-QMMM, RESP, rigid body optimization, SF, symmetry and pop. for TD-DFT, various functionals, SOLVATOR                                   
                                                                         
[Other institutions]                                                     
  V. Asgeirsson          : NEB                                           
  Christoph Bannwarth    : sTDA-DFT, sTD-DFT, PBEh-3c, B97-3c, D3        
  Giovanni Bistoni       : ETS/NOCV, ADLD/ADEX, COVALED                  
  Martin Brehm           : Molecular dynamics                            
  Ronald Cardenas        : ETS/NOCV                                      
  Martina Colucci        : COVALED                                       
  Sebastian Ehlert       : rSCAN, r2SCAN, r2SCAN-3c, D4, dhf basis sets  
  Marvin Friede          : D4 for Fr, Ra, Ac-Lr                          
  Lars Goerigk           : TD-DFT with DH, B97 family of functionals     
  Stefan Grimme          : VdW corrections, initial TS optimization, DFT functionals, gCP, sTDA/sTD-DF 
  Waldemar Hujo          : DFT-NL                                        
  H. Jonsson             : NEB                                           
  Holger Kruse           : gCP                                           
  Marcel Mueller         : wB97X-3c, vDZP basis set                      
  Hagen Neugebauer       : wr2SCAN, Native XTB                           
  Gianluca Regni         : ADLD/ADEX                                     
  Tobias Risthaus        : pre 6.0 range-separated hybrid DFT and stability analysis
  Lukas Wittmann         : regularized MP2, r2SCAN double-hybrids, wr2SCAN        
                                                                         
We gratefully acknowledge several colleagues who have allowed us to      
interface, adapt or use parts of their codes:                            
  Ed Valeev, F. Pavosevic, A. Kumar             : LibInt (2-el integral package), F12 methods 
  Garnet Chan, S. Sharma, J. Yang, R. Olivares  : DMRG                   
  Ulf Ekstrom                                   : XCFun DFT Library      
  Mihaly Kallay                                 : mrcc  (arbitrary order and MRCC methods)
  Frank Weinhold                                : gennbo (NPA and NBO analysis)           
  Simon Mueller                                 : openCOSMO-RS                            
  Christopher J. Cramer and Donald G. Truhlar   : smd solvation model                     
  S Lehtola, MJT Oliveira, MAL Marques          : LibXC Library                           
  Liviu Ungur et al                             : ANISO software                          


 Your calculation uses the libint2 library for the computation of 2-el integrals
 For citations please refer to: http://libint.valeyev.net

 Your ORCA version has been built with support for libXC version: 7.0.0
 For citations please refer to: https://libxc.gitlab.io

 This ORCA versions uses:
   CBLAS   interface :  Fast vector & matrix operations
   LAPACKE interface :  Fast linear algebra routines
   SCALAPACK package :  Parallel linear algebra routines
   Shared memory     :  Shared parallel matrices
   BLAS/LAPACK       :  OpenBLAS 0.3.29  USE64BITINT DYNAMIC_ARCH NO_AFFINITY Haswell SINGLE_THREADED
        Core in use  :  Haswell
   Copyright (c) 2011-2014, The OpenBLAS Project


  ***********************************
  * Starting time: Tue Sep 30 11:16:29 2025
  * Host name:     sv1-c724
  * Process ID:    1514929
  * Working dir.:  /home/lme/practical_course/practical_course_bachelor/h2co3/vpt2/tight_opt
  ***********************************

================================================================================

----- Orbital basis set information -----
Your calculation utilizes the basis: def2-SVP
   F. Weigend and R. Ahlrichs, Phys. Chem. Chem. Phys. 7, 3297 (2005).

----- AuxC basis set information -----
Your calculation utilizes the auxiliary basis: cc-pVDZ/C 
  H-He, B, Ne, Al-Ar, Ga-Br : Obtained from the EMSL Basis Set Exchange (bse.pnl.gov) Feb. 2017
                              F. Weigend, A. Kohn, C. Hattig, J. Chem. Phys. 116, 3175 (2002)
               Li-Be, Na-Mg : Obtained from the EMSL Basis Set Exchange (bse.pnl.gov) Feb. 2017
                              C. Haettig, Phys. Chem. Chem. Phys. 7, 59 (2005)
                        C-F : Obtained from the EMSL Basis Set Exchange (bse.pnl.gov) Feb. 2017
                              C. Haettig, Phys. Chem. Chem. Phys. 7, 59 (2005)
                              F. Weigend, A. Kohn, C. Hattig, J. Chem. Phys. 116, 3175 (2002)
                         Kr : Obtained from the TURBOMOLE 7.0 basis set library
                              F. Weigend, A. Kohn, C. Hattig, J. Chem. Phys. 116, 3175 (2002)
                              S function revised in Sep. 2009

================================================================================
                                        WARNINGS
                       Please study these warnings very carefully!
================================================================================

WARNING: Old DensityContainer found on disk!
         Will remove this file - 
         If you want to keep old densities, please start your calculation with a different basename. 


WARNING: Analytical and numerical frequencies both set to true
  ===> : Disabling Anfreq

WARNING: The frozen-core approximation for MP2-gradient calculations is turned on by default.

WARNING: The environment variable RSH_COMMAND is not set!
  ===> : All Displacements for the Numerical Hessian or Gradient calculation
         will be started on localhost

WARNING: Geometry Optimization
  ===> : Switching off AutoStart
         For restart on a previous wavefunction, please use MOREAD

WARNING: Post HF methods need fully converged wavefunctions
  ===> : Setting SCFConvForced true
         You can overwrite this default with %scf ConvForced false 


================================================================================
                                       INPUT FILE
================================================================================
NAME = h2co3.inp
|  1> ! RI-MP2 cc-PVDZ/C VERYTIGHTOPT FREQ NUMFREQ
|  2> %pal nprocs 6 end
|  3> 
|  4> * xyz 0 1
|  5> C   0.000000   0.000000   0.000000
|  6> O   1.230000   0.000000   0.000000
|  7> O  -0.665000   1.151814   0.000000
|  8> O  -0.665000  -1.151814   0.000000
|  9> H  -0.022635   1.865233   0.000000
| 10> H  -0.022635  -1.865233   0.000000
| 11> *
| 12> 
| 13>                          ****END OF INPUT****
================================================================================

                       *****************************
                       * Geometry Optimization Run *
                       *****************************

Geometry optimization settings:
Update method            Update   .... BFGS
Choice of coordinates    CoordSys .... (2022) Redundant Internals
Initial Hessian          InHess   .... Almloef's Model
Max. no of cycles        MaxIter  .... 50

Convergence Tolerances:
Energy Change            TolE     ....  2.0000e-07 Eh
Max. Gradient            TolMAXG  ....  3.0000e-05 Eh/bohr
RMS Gradient             TolRMSG  ....  8.0000e-06 Eh/bohr
Max. Displacement        TolMAXD  ....  2.0000e-04 bohr
RMS Displacement         TolRMSD  ....  1.0000e-04 bohr
Strict Convergence                .... False

------------------------------------------------------------------------------
                        ORCA OPTIMIZATION COORDINATE SETUP
------------------------------------------------------------------------------

The optimization will be done in redundant internal coordinates (2022)
Making redundant internal coordinates   ...  (2022 redundants) done
Evaluating the initial hessian          ...  (Almloef) done
Evaluating the coordinates              ...  done
Calculating the B-matrix                .... done
Calculating the G-matrix                .... done
The number of degrees of freedom        ....   14

    -----------------------------------------------------------------
                    Redundant Internal Coordinates


    -----------------------------------------------------------------
         Definition                    Initial Value    Approx d2E/dq
    -----------------------------------------------------------------
      1. B(O   1,C   0)                  1.2300         1.007269   
      2. B(O   2,C   0)                  1.3300         0.697592   
      3. B(O   3,C   0)                  1.3300         0.697592   
      4. B(H   4,O   2)                  0.9600         0.519957   
      5. B(H   5,O   3)                  0.9600         0.519957   
      6. A(O   1,C   0,O   3)          120.0000         0.478061   
      7. A(O   2,C   0,O   3)          120.0000         0.447020   
      8. A(O   1,C   0,O   2)          120.0000         0.478061   
      9. A(C   0,O   2,H   4)          108.0000         0.377720   
     10. A(C   0,O   3,H   5)          108.0000         0.377720   
     11. D(H   4,O   2,C   0,O   1)      0.0000         0.036418   
     12. D(H   4,O   2,C   0,O   3)    180.0000         0.036418   
     13. D(H   5,O   3,C   0,O   1)      0.0000         0.036418   
     14. D(H   5,O   3,C   0,O   2)    180.0000         0.036418   
    -----------------------------------------------------------------

Number of atoms                         .... 6
Number of degrees of freedom            .... 14


         *************************************************************
         *                GEOMETRY OPTIMIZATION CYCLE   1            *
         *************************************************************
---------------------------------
CARTESIAN COORDINATES (ANGSTROEM)
---------------------------------
  C      0.000000    0.000000    0.000000
  O      1.230000    0.000000    0.000000
  O     -0.665000    1.151814    0.000000
  O     -0.665000   -1.151814    0.000000
  H     -0.022635    1.865233    0.000000
  H     -0.022635   -1.865233    0.000000

----------------------------
CARTESIAN COORDINATES (A.U.)
----------------------------
  NO LB      ZA    FRAG     MASS         X           Y           Z
   0 C     6.0000    0    12.011    0.000000    0.000000    0.000000
   1 O     8.0000    0    15.999    2.324363    0.000000    0.000000
   2 O     8.0000    0    15.999   -1.256668    2.176613    0.000000
   3 O     8.0000    0    15.999   -1.256668   -2.176613    0.000000
   4 H     1.0000    0     1.008   -0.042774    3.524780    0.000000
   5 H     1.0000    0     1.008   -0.042774   -3.524780    0.000000

--------------------------------
INTERNAL COORDINATES (ANGSTROEM)
--------------------------------
 C      0   0   0     0.000000000000     0.00000000     0.00000000
 O      1   0   0     1.230000000000     0.00000000     0.00000000
 O      1   2   0     1.330000184435   119.99999541     0.00000000
 O      1   2   3     1.330000184435   119.99999541   180.00000000
 H      3   1   2     0.959999720201   108.00002024     0.00000000
 H      4   1   2     0.959999720201   108.00002024     0.00000000

---------------------------
INTERNAL COORDINATES (A.U.)
---------------------------
 C      0   0   0     0.000000000000     0.00000000     0.00000000
 O      1   0   0     2.324363144723     0.00000000     0.00000000
 O      1   2   0     2.513336106646   119.99999541     0.00000000
 O      1   2   3     2.513336106646   119.99999541   180.00000000
 H      3   1   2     1.814136559821   108.00002024     0.00000000
 H      4   1   2     1.814136559821   108.00002024     0.00000000

---------------------
BASIS SET INFORMATION
---------------------
There are 3 groups of distinct atoms

 Group   1 Type C   : 7s4p1d contracted to 3s2p1d pattern {511/31/1}
 Group   2 Type O   : 7s4p1d contracted to 3s2p1d pattern {511/31/1}
 Group   3 Type H   : 4s1p contracted to 2s1p pattern {31/1}

Atom   0C    basis set group =>   1
Atom   1O    basis set group =>   2
Atom   2O    basis set group =>   2
Atom   3O    basis set group =>   2
Atom   4H    basis set group =>   3
Atom   5H    basis set group =>   3
---------------------------------
AUXILIARY/C BASIS SET INFORMATION
---------------------------------
There are 3 groups of distinct atoms

 Group   1 Type C   : 7s5p4d2f contracted to 7s5p4d2f pattern {1111111/11111/1111/11}
 Group   2 Type O   : 7s5p4d2f contracted to 7s5p4d2f pattern {1111111/11111/1111/11}
 Group   3 Type H   : 3s2p1d contracted to 3s2p1d pattern {111/11/1}

Atom   0C    basis set group =>   1
Atom   1O    basis set group =>   2
Atom   2O    basis set group =>   2
Atom   3O    basis set group =>   2
Atom   4H    basis set group =>   3
Atom   5H    basis set group =>   3


           ************************************************************
           *        Program running with 6 parallel MPI-processes     *
           *              working on a common directory               *
           ************************************************************
------------------------------------------------------------------------------
                             ORCA STARTUP CALCULATIONS
------------------------------------------------------------------------------
------------------------------------------------------------------------------
                   ___                                                        
                  /   \      - P O W E R E D   B Y -                         
                 /     \                                                     
                 |  |  |   _    _      __       _____    __    __             
                 |  |  |  | |  | |    /  \     |  _  \  |  |  /  |          
                  \  \/   | |  | |   /    \    | | | |  |  | /  /          
                 / \  \   | |__| |  /  /\  \   | |_| |  |  |/  /          
                |  |  |   |  __  | /  /__\  \  |    /   |      \           
                |  |  |   | |  | | |   __   |  |    \   |  |\   \          
                \     /   | |  | | |  |  |  |  | |\  \  |  | \   \       
                 \___/    |_|  |_| |__|  |__|  |_| \__\ |__|  \__/        
                                                                              
                      - O R C A' S   B I G   F R I E N D -                    
                                      &                                       
                       - I N T E G R A L  F E E D E R -                       
                                                                              
 v1 FN, 2020, v2 2021, v3 2022-2024                                           
------------------------------------------------------------------------------


----------------------
SHARK INTEGRAL PACKAGE
----------------------

Number of atoms                             ...      6
Number of basis functions                   ...     66
Number of shells                            ...     30
Maximum angular momentum                    ...      2
Integral batch strategy                     ... SHARK/LIBINT Hybrid
RI-J (if used) integral strategy            ... SPLIT-RIJ (Revised 2003 algorithm where possible)
Printlevel                                  ...      1
Contraction scheme used                     ... SEGMENTED contraction
Prescreening option                         ... SCHWARTZ
   Thresh                                   ... 1.000e-13
   Tcut                                     ... 1.000e-15
   Tpresel                                  ... 1.000e-15 
Coulomb Range Separation                    ... NOT USED
Exchange Range Separation                   ... NOT USED
Multipole approximations                    ... NOT USED
Finite Nucleus Model                        ... NOT USED
CABS basis                                  ... NOT available
Auxiliary Coulomb fitting basis             ... NOT available
Auxiliary J/K fitting basis                 ... NOT available
Auxiliary Correlation fitting basis         ... AVAILABLE
   # of basis functions in Aux-C            ...    252
   # of shells in Aux-C                     ...     84
   Maximum angular momentum in Aux-C        ...      3
Auxiliary 'external' fitting basis          ... NOT available

Checking pre-screening integrals            ... done (  0.0 sec) Dimension = 30
   => SHARK Basis and OBASIS are compatible. Storing Pre-screening
Shell pair information
Shell pair cut-off parameter TPreSel        ...   1.0e-15
Total number of shell pairs                 ...       465
Shell pairs after pre-screening             ...       462
Total number of primitive shell pairs       ...      1769
Primitive shell pairs kept                  ...      1483
          la=0 lb=0:    133 shell pairs
          la=1 lb=0:    160 shell pairs
          la=1 lb=1:     55 shell pairs
          la=2 lb=0:     64 shell pairs
          la=2 lb=1:     40 shell pairs
          la=2 lb=2:     10 shell pairs

Checking whether 4 symmetric matrices of dimension 66 fit in memory
:Max Core in MB      =   4096.00
 MB in use           =      2.54
 MB left             =   4093.46
 MB needed           =      0.07
 Data fit in memory  = YES
Calculating RI/C V-Matrix + Cholesky decomp.... done (  0.0 sec)
Calculating Nuclear repulsion               ... done (  0.0 sec) ENN=    122.971964532274 Eh

Diagonalization of the overlap matrix:
Smallest eigenvalue                        ... 1.088e-02
Time for diagonalization                   ...    0.001 sec
Threshold for overlap eigenvalues          ... 1.000e-07
Number of eigenvalues below threshold      ... 0
Time for construction of square roots      ...    0.000 sec
Total time needed                          ...    0.002 sec

-------------------
DFT GRID GENERATION
-------------------

General Integration Accuracy     IntAcc      ... 4.388
Radial Grid Type                 RadialGrid  ... OptM3 with GC (2021)
Angular Grid (max. ang.)         AngularGrid ... 4 (Lebedev-302)
Angular grid pruning method      GridPruning ... 4 (adaptive)
Weight generation scheme         WeightScheme... mBecke (2022)
Basis function cutoff            BFCut       ... 1.0000e-13
Integration weight cutoff        WCut        ... 1.0000e-14
Partially contracted basis set               ... off
Rotationally invariant grid construction     ... off
Angular grids for H and He will be reduced by one unit

Total number of grid points                  ...    30967
Total number of batches                      ...      487
Average number of points per batch           ...       63
Average number of grid points per atom       ...     5161
Grids setup in   0.2 sec
Initializing property integral containers    ... done (  0.0 sec)

SHARK setup successfully completed in   0.3 seconds

Maximum memory used throughout the entire STARTUP-calculation: 8.4 MB


           ************************************************************
           *        Program running with 6 parallel MPI-processes     *
           *              working on a common directory               *
           ************************************************************
-------------------------------------------------------------------------------
                                 ORCA GUESS
                   Start orbitals & Density for SCF / CASSCF
-------------------------------------------------------------------------------

------------
SCF SETTINGS
------------
Hamiltonian:
 Ab initio Hamiltonian  Method          .... Hartree-Fock(GTOs)


General Settings:
 Integral files         IntName         .... h2co3
 Hartree-Fock type      HFTyp           .... RHF
 Total Charge           Charge          ....    0
 Multiplicity           Mult            ....    1
 Number of Electrons    NEL             ....   32
 Basis Dimension        Dim             ....   66
 Nuclear Repulsion      ENuc            ....    122.9719645323 Eh

Convergence Acceleration:
 AO-DIIS                CNVDIIS         .... on
   Start iteration      DIISMaxIt       ....    12
   Startup error        DIISStart       ....  0.200000
   # of expansion vecs  DIISMaxEq       ....     5
   Bias factor          DIISBfac        ....   1.050
   Max. coefficient     DIISMaxC        ....  10.000
 MO-DIIS                CNVKDIIS        .... off
 Trust-Rad. Augm. Hess. CNVTRAH         .... auto
   Auto Start mean grad. ratio tolernc. ....  1.125000
   Auto Start start iteration           ....    50
   Auto Start num. interpolation iter.  ....    10
   Max. Number of Micro iterations      ....    24
   Max. Number of Macro iterations      .... Maxiter - #DIIS iter
   Number of Davidson start vectors     ....     2
   Converg. threshold    (grad. norm)   ....   2.000e-07
   Grad. Scal. Fac. for Micro threshold ....   0.100
   Minimum threshold for Micro iter.    ....   1.000e-02
   NR start threshold (gradient norm)   ....   1.000e-04
   Initial trust radius                 ....   0.400
   Minimum AH scaling param. (alpha)    ....   1.000
   Maximum AH scaling param. (alpha)    .... 1000.000
   Quad. conv. algorithm                .... NR
   White noise on init. David. guess    .... on
   Maximum white noise                  ....   0.010
   Pseudo random numbers                .... off
   Inactive MOs                         .... canonical
   Orbital update algorithm             .... Taylor
   Preconditioner                       .... Diag
   Full preconditioner red. dimension   ....   250
 SOSCF                 CNVSOSCF           .... on
   Start iteration     SOSCFMaxIt         ....   150
   Startup grad/error  SOSCFStart         ....  0.003300
   Hessian update      SOSCFHessUp        .... L-BFGS
   Autom. constraints  SOSCFAutoConstrain .... off
 Level Shifting         CNVShift        .... on
   Level shift para.    LevelShift      ....    0.2500
   Turn off err/grad.   ShiftErr        ....    0.0010
 Zerner damping         CNVZerner       .... off
 Static damping         CNVDamp         .... on
   Fraction old density DampFac         ....    0.7000
   Max. Damping (<1)    DampMax         ....    0.9800
   Min. Damping (>=0)   DampMin         ....    0.0000
   Turn off err/grad.   DampErr         ....    0.1000

SCF Procedure:
 Maximum # iterations   MaxIter         ....   125
 SCF integral mode      SCFMode         .... Direct
   Integral package                     .... SHARK and LIBINT hybrid scheme
 Reset frequency        DirectResetFreq ....    20
 Integral Threshold     Thresh          ....  1.000e-13 Eh
 Primitive CutOff       TCut            ....  1.000e-15 Eh

Convergence Tolerance:
 Convergence Check Mode ConvCheckMode   .... Total+1el-Energy
 Convergence forced     ConvForced      .... 1
 Energy Change          TolE            ....  1.000e-10 Eh
 1-El. energy change                    ....  1.000e-07 Eh
 Orbital Gradient       TolG            ....  2.000e-07
 Orbital Rotation angle TolX            ....  2.000e-07
 DIIS Error             TolErr          ....  1.000e-09

------------------------------
INITIAL GUESS: MODEL POTENTIAL
------------------------------
Loading Hartree-Fock densities                     ... done
Calculating cut-offs                               ... done
Initializing the effective Hamiltonian             ... done
Setting up the integral package (SHARK)            ... done
Starting the Coulomb interaction                   ... done (   0.0 sec)
Making the grid                                    ... done (   0.0 sec)
Mapping shells                                     ... done
Starting the XC term evaluation                    ... done (   0.0 sec)
Transforming the Hamiltonian                       ... done (   0.0 sec)
Diagonalizing the Hamiltonian                      ... done (   0.0 sec)
Back transforming the eigenvectors                 ... done (   0.0 sec)
Now organizing SCF variables                       ... done
                      ------------------
                      INITIAL GUESS DONE (   0.1 sec)
                      ------------------
             **** ENERGY FILE WAS UPDATED (h2co3.en.tmp) ****
Finished Guess after   0.3 sec
Maximum memory used throughout the entire GUESS-calculation: 4.8 MB


           ************************************************************
           *        Program running with 6 parallel MPI-processes     *
           *              working on a common directory               *
           ************************************************************

-------------------------------------------------------------------------------------------
                                      ORCA LEAN-SCF
                              memory conserving SCF solver
-------------------------------------------------------------------------------------------

----------------------------------------D-I-I-S--------------------------------------------
Iteration    Energy (Eh)           Delta-E    RMSDP     MaxDP     DIISErr   Damp  Time(sec)
-------------------------------------------------------------------------------------------
               ***  Starting incremental Fock matrix formation  ***
    1    -263.2690203888294036     0.00e+00  1.22e-02  7.05e-02  2.84e-01  0.700   0.0
    2    -263.3338845817434617    -6.49e-02  8.33e-03  5.02e-02  1.71e-01  0.700   0.1
                               ***Turning on AO-DIIS***
    3    -263.3694420203020741    -3.56e-02  3.78e-03  2.21e-02  9.37e-02  0.700   0.0
    4    -263.3915647688796184    -2.21e-02  8.51e-03  4.90e-02  6.51e-02  0.000   0.0
    5    -263.4409871748694627    -4.94e-02  1.32e-03  8.28e-03  6.45e-03  0.000   0.0
                              *** Initializing SOSCF ***
---------------------------------------S-O-S-C-F--------------------------------------
Iteration    Energy (Eh)           Delta-E    RMSDP     MaxDP     MaxGrad    Time(sec)
--------------------------------------------------------------------------------------
    6    -263.4412677854350022    -2.81e-04  6.25e-04  2.65e-03  3.16e-03     0.0
               *** Restarting incremental Fock matrix formation ***
    7    -263.4413369390035768    -6.92e-05  4.05e-04  2.31e-03  1.80e-03     0.0
    8    -263.4413595791214675    -2.26e-05  4.83e-04  2.46e-03  7.34e-04     0.1
    9    -263.4413673132225426    -7.73e-06  8.59e-05  4.53e-04  2.87e-04     0.0
   10    -263.4413681908832245    -8.78e-07  1.96e-05  1.19e-04  6.38e-05     0.0
   11    -263.4413682398550804    -4.90e-08  1.40e-05  8.00e-05  2.58e-05     0.0
   12    -263.4413682505570478    -1.07e-08  2.41e-06  8.65e-06  5.98e-06     0.0
   13    -263.4413682509978685    -4.41e-10  6.82e-07  4.36e-06  3.31e-06     0.0
   14    -263.4413682510512444    -5.34e-11  1.76e-07  1.16e-06  6.98e-07     0.0
                 **** Energy Check signals convergence ****

               *****************************************************
               *                     SUCCESS                       *
               *           SCF CONVERGED AFTER  14 CYCLES          *
               *****************************************************

             **** ENERGY FILE WAS UPDATED (h2co3.en.tmp) ****

----------------
TOTAL SCF ENERGY
----------------

Total Energy       :       -263.44136825105426 Eh           -7168.60407 eV

Components:
Nuclear Repulsion  :        122.97196453227441 Eh            3346.23727 eV
Electronic Energy  :       -386.41333278332866 Eh          -10514.84135 eV
One Electron Energy:       -606.03409810328719 Eh          -16491.02620 eV
Two Electron Energy:        219.62076531995854 Eh            5976.18485 eV

Virial components:
Potential Energy   :       -525.98131560037882 Eh          -14312.67924 eV
Kinetic Energy     :        262.53994734932462 Eh            7144.07517 eV
Virial Ratio       :          2.00343346188201

---------------
SCF CONVERGENCE
---------------

  Last Energy change         ...    5.3376e-11  Tolerance :   1.0000e-10
  Last MAX-Density change    ...    1.1557e-06  Tolerance :   1.0000e-09
  Last RMS-Density change    ...    1.7619e-07  Tolerance :   1.0000e-10
  Last DIIS Error            ...    3.1607e-03  Tolerance :   1.0000e-09
  Last Orbital Gradient      ...    6.9809e-07  Tolerance :   2.0000e-07
  Last Orbital Rotation      ...    4.8851e-07  Tolerance :   2.0000e-07


----------------
ORBITAL ENERGIES
----------------

  NO   OCC          E(Eh)            E(eV) 
   0   2.0000     -20.630720      -561.3904 
   1   2.0000     -20.630666      -561.3890 
   2   2.0000     -20.538092      -558.8699 
   3   2.0000     -11.457508      -311.7747 
   4   2.0000      -1.507736       -41.0276 
   5   2.0000      -1.415236       -38.5105 
   6   2.0000      -1.334120       -36.3032 
   7   2.0000      -0.908395       -24.7187 
   8   2.0000      -0.772118       -21.0104 
   9   2.0000      -0.718118       -19.5410 
  10   2.0000      -0.690879       -18.7998 
  11   2.0000      -0.684193       -18.6178 
  12   2.0000      -0.593628       -16.1534 
  13   2.0000      -0.566251       -15.4085 
  14   2.0000      -0.476504       -12.9663 
  15   2.0000      -0.472119       -12.8470 
  16   0.0000       0.163769         4.4564 
  17   0.0000       0.197244         5.3673 
  18   0.0000       0.207057         5.6343 
  19   0.0000       0.352763         9.5992 
  20   0.0000       0.480551        13.0765 
  21   0.0000       0.582383        15.8474 
  22   0.0000       0.607287        16.5251 
  23   0.0000       0.649486        17.6734 
  24   0.0000       0.692700        18.8493 
  25   0.0000       0.757512        20.6130 
  26   0.0000       0.846430        23.0325 
*Only the first 10 virtual orbitals were printed.

                    ********************************
                    * MULLIKEN POPULATION ANALYSIS *
                    ********************************

-----------------------
MULLIKEN ATOMIC CHARGES
-----------------------
   0 C :    0.626072
   1 O :   -0.473339
   2 O :   -0.316013
   3 O :   -0.316013
   4 H :    0.239647
   5 H :    0.239647
Sum of atomic charges:    0.0000000

--------------------------------
MULLIKEN REDUCED ORBITAL CHARGES
--------------------------------
  0 C s       :     2.926645  s :     2.926645
      pz      :     0.673811  p :     2.249845
      px      :     0.815726
      py      :     0.760307
      dz2     :     0.011251  d :     0.197438
      dxz     :     0.036539
      dyz     :     0.024814
      dx2y2   :     0.050390
      dxy     :     0.074445

  1 O s       :     3.792661  s :     3.792661
      pz      :     1.539401  p :     4.660578
      px      :     1.294176
      py      :     1.827001
      dz2     :     0.002310  d :     0.020100
      dxz     :     0.006449
      dyz     :     0.000026
      dx2y2   :     0.007828
      dxy     :     0.003486

  2 O s       :     3.699977  s :     3.699977
      pz      :     1.840858  p :     4.600320
      px      :     1.574929
      py      :     1.184533
      dz2     :     0.002331  d :     0.015716
      dxz     :     0.001823
      dyz     :     0.001117
      dx2y2   :     0.001689
      dxy     :     0.008756

  3 O s       :     3.699977  s :     3.699977
      pz      :     1.840858  p :     4.600320
      px      :     1.574929
      py      :     1.184533
      dz2     :     0.002331  d :     0.015716
      dxz     :     0.001823
      dyz     :     0.001117
      dx2y2   :     0.001689
      dxy     :     0.008756

  4 H s       :     0.688115  s :     0.688115
      pz      :     0.015681  p :     0.072238
      px      :     0.025188
      py      :     0.031369

  5 H s       :     0.688115  s :     0.688115
      pz      :     0.015681  p :     0.072238
      px      :     0.025188
      py      :     0.031369



                     *******************************
                     * LOEWDIN POPULATION ANALYSIS *
                     *******************************

----------------------
LOEWDIN ATOMIC CHARGES
----------------------
   0 C :    0.244589
   1 O :   -0.344586
   2 O :   -0.071301
   3 O :   -0.071301
   4 H :    0.121299
   5 H :    0.121299

-------------------------------
LOEWDIN REDUCED ORBITAL CHARGES
-------------------------------
  0 C s       :     2.793425  s :     2.793425
      pz      :     0.704348  p :     2.583229
      px      :     1.000515
      py      :     0.878366
      dz2     :     0.021340  d :     0.378757
      dxz     :     0.063930
      dyz     :     0.045645
      dx2y2   :     0.098257
      dxy     :     0.149584

  1 O s       :     3.566638  s :     3.566638
      pz      :     1.518722  p :     4.747092
      px      :     1.427137
      py      :     1.801233
      dz2     :     0.004593  d :     0.030856
      dxz     :     0.006658
      dyz     :     0.000032
      dx2y2   :     0.015032
      dxy     :     0.004541

  2 O s       :     3.405618  s :     3.405618
      pz      :     1.779659  p :     4.637964
      px      :     1.617962
      py      :     1.240343
      dz2     :     0.004310  d :     0.027720
      dxz     :     0.001313
      dyz     :     0.001833
      dx2y2   :     0.003272
      dxy     :     0.016992

  3 O s       :     3.405618  s :     3.405618
      pz      :     1.779659  p :     4.637964
      px      :     1.617962
      py      :     1.240343
      dz2     :     0.004310  d :     0.027720
      dxz     :     0.001313
      dyz     :     0.001833
      dx2y2   :     0.003272
      dxy     :     0.016992

  4 H s       :     0.696288  s :     0.696288
      pz      :     0.047528  p :     0.182413
      px      :     0.068412
      py      :     0.066473

  5 H s       :     0.696288  s :     0.696288
      pz      :     0.047528  p :     0.182413
      px      :     0.068412
      py      :     0.066473



                      *****************************
                      * MAYER POPULATION ANALYSIS *
                      *****************************

  NA   - Mulliken gross atomic population
  ZA   - Total nuclear charge
  QA   - Mulliken gross atomic charge
  VA   - Mayer's total valence
  BVA  - Mayer's bonded valence
  FA   - Mayer's free valence

  ATOM       NA         ZA         QA         VA         BVA        FA
  0 C      5.3739     6.0000     0.6261     4.2774     4.2774     0.0000
  1 O      8.4733     8.0000    -0.4733     1.9528     1.9528     0.0000
  2 O      8.3160     8.0000    -0.3160     2.1007     2.1007     0.0000
  3 O      8.3160     8.0000    -0.3160     2.1007     2.1007     0.0000
  4 H      0.7604     1.0000     0.2396     0.9865     0.9865    -0.0000
  5 H      0.7604     1.0000     0.2396     0.9865     0.9865    -0.0000

  Mayer bond orders larger than 0.100000
B(  0-C ,  1-O ) :   1.9099 B(  0-C ,  2-O ) :   1.1577 B(  0-C ,  3-O ) :   1.1577 
B(  2-O ,  4-H ) :   0.9390 B(  3-O ,  5-H ) :   0.9390 

-------
TIMINGS
-------

Total SCF time: 0 days 0 hours 0 min 0 sec 

Total time                  ....       0.941 sec
Sum of individual times     ....       0.903 sec  ( 96.0%)

SCF preparation             ....       0.318 sec  ( 33.8%)
Fock matrix formation       ....       0.500 sec  ( 53.2%)
  Startup                   ....       0.002 sec  (  0.4% of F)
  Coulomb+Exchange Fock     ....       0.425 sec  ( 84.9% of F)
Diagonalization             ....       0.000 sec  (  0.0%)
Density matrix formation    ....       0.012 sec  (  1.3%)
Total Energy calculation    ....       0.008 sec  (  0.9%)
Population analysis         ....       0.004 sec  (  0.5%)
Orbital Transformation      ....       0.005 sec  (  0.6%)
Orbital Orthonormalization  ....       0.000 sec  (  0.0%)
DIIS solution               ....       0.028 sec  (  3.0%)
SOSCF solution              ....       0.027 sec  (  2.8%)
Finished LeanSCF after   0.9 sec

Maximum memory used throughout the entire LEANSCF-calculation: 7.5 MB


           ************************************************************
           *        Program running with 6 parallel MPI-processes     *
           *              working on a common directory               *
           ************************************************************

------------------------------------------------------------------------------
                                ORCA  MP2 
------------------------------------------------------------------------------

Freezing NCore=8 chemical core electrons

----------------------
RI-MP2 ENERGY+GRADIENT
----------------------
Dimension of the orbital basis            ...   66
Dimension of the AuxC basis               ...  252
Memory devoted to MP2                     ... 4096 MB   
Data format for matrix containers         ... DOUBLE
Compression type for matrix containers    ... UNCOMPRESSED

-----------------------
SHARK RI TRANSFORMATION
-----------------------

Number of basis functions                ...     66
Number of aux functions                  ...    252
Number of operators                      ...      1
Generation of IJK                        ... YES
Generation of IAK                        ... YES
Generation of ABK                        ... NO
Orbital Range Operator  0:    0-  15 to   16-  65

Aux basis identifier                     ...   AUXC
Contraction scheme used                  ... SEGMENTED
Do orthogonalization                     ... YES
All operator combinations                ... NO
Transpose (ia|K)                         ... NO
Integral generator used                  ... LIBINT
Starting integral generation + trafo... 
Half trafo (segmented) done. Total time =  0.0 sec. integrals=  0.0 sec trafo=  0.0 sec
Integral generation and half transformation done (  0.0 sec)

Reading or making V^(-1/2)          ... done (  0.0 sec)
Sorting IJK integrals               ... done (  0.0 sec)
Sorting IAK integrals               ... done (  0.0 sec)

SHARK RI integral transformation done. Total time =  0.0 sec.

Opening buffers                              ... done
Frozen core precalculation                   ... done

Starting loop over batches of integrals:

Operator 0  - window                       ... (  4- 15)x( 16- 65)
Operator 0  - Memory available             ...  4096 MB
Operator 0  - Memory needed per MO         ...   0.1 MB
Operator 0  - Number of orbitals per batch ... 2
Operator 0  - Number of batches            ... 1

OPERATOR  0   PASS   0:  MOs     4 ...    5 +    6 ...    7 +    8 ...    9 +   10 ...   11
                            +   12 ...   13 +   14 ...   15
  Reading integrals       ... ok
Closing buffer GIPV ( 0.00 GB; CompressionRatio= 1.00)
Time spent in pair loops =     0.014 sec
Deleting buffers (Ka|jb) ...done

-----------------------------------------------
 RI-MP2 CORRELATION ENERGY:     -0.673466642 Eh
-----------------------------------------------


---------------------
MP2 DENSITY FORMATION
---------------------

Completing the external part of the density      ... done
Storing the unrelaxed density                    ... done

Re-sorting 3-index density container for op 0    ... done
Computing external part of the Lagrangian        ... done
Calculating G(D)                                 ... done
Completing the Lagrangian                        ... done
Solving the Z-vector equations                   ... 
-------------------
SHARK CP-SCF DRIVER
-------------------

Dimension of the orbital basis          ...     66
Dimension of the CPSCF-problem          ...    800
Number of operators                     ...      1
Max. number of iterations               ...    128
Convergence Tolerance                   ... 3.0e-06
Number of perturbations                 ...      1
Perturbation type                       ... REAL

----------------------------
POPLE LINEAR EQUATION SOLVER
----------------------------

  ITERATION   0:   ||err||_max =   9.5658e-02 (   0.0 sec)
  ITERATION   1:   ||err||_max =   2.9546e-02 (   0.0 sec)
  ITERATION   2:   ||err||_max =   1.1677e-02 (   0.0 sec)
  ITERATION   3:   ||err||_max =   3.0103e-03 (   0.0 sec)
  ITERATION   4:   ||err||_max =   1.0894e-03 (   0.0 sec)
  ITERATION   5:   ||err||_max =   3.3823e-04 (   0.0 sec)
  ITERATION   6:   ||err||_max =   8.6628e-05 (   0.0 sec)
  ITERATION   7:   ||err||_max =   1.6001e-05 (   0.0 sec)
  ITERATION   8:   ||err||_max =   3.4639e-06 (   0.0 sec)
  ITERATION   9:   ||err||_max =   7.4077e-07 (   0.0 sec)
done
Finalizing the relaxed density                   ... done
Transforming P to the AO basis                   ... done
Storing the relaxed density                      ... done

------------------------------------
ENERGY WEIGHTED DENSITY FINALIZATION
------------------------------------

Gathering the parts of the W-matrix              ... done
Forming the Z-density                            ... done
Transforming Z to the AO basis                   ... done
Calculating G(Z)                                 ... done
Finalizing the W-matrix                          ... done
Transforming W to the AO basis and storing       ... done

----------------------------------
MP2 DERIVATIVE INTEGRAL GENERATION
----------------------------------

Input SCF Electron Density              ... h2co3.scfp
Input Correlated Electron Density       ... h2co3.pmp2re
Input Energy Weighted Density           ... h2co3.wmp2.tmp

Nuclear repulsion gradient              ... done (  0.0 sec)
HCore & Overlap gradient  (SHARK)       ... done (  0.0 sec)
Analytic two-electron gradient terms    ... done (  0.1 sec)

                *********************************************
                * UNRELAXED MP2 DENSITY POPULATION ANALYSIS *
                *********************************************

------------------------------------------------------------------------------
                           ORCA POPULATION ANALYSIS
------------------------------------------------------------------------------
Input electron density              ... h2co3.pmp2ur
BaseName (.gbw .S,...)              ... h2co3

                    ********************************
                    * MULLIKEN POPULATION ANALYSIS *
                    ********************************

-----------------------
MULLIKEN ATOMIC CHARGES
-----------------------
   0 C :    0.590376
   1 O :   -0.453694
   2 O :   -0.305568
   3 O :   -0.305568
   4 H :    0.237228
   5 H :    0.237228
Sum of atomic charges:    0.0000000

--------------------------------
MULLIKEN REDUCED ORBITAL CHARGES
--------------------------------
  0 C s       :     2.929308  s :     2.929308
      pz      :     0.692280  p :     2.273257
      px      :     0.815549
      py      :     0.765428
      dz2     :     0.012795  d :     0.207060
      dxz     :     0.038390
      dyz     :     0.027148
      dx2y2   :     0.052166
      dxy     :     0.076560
  1 O s       :     3.791158  s :     3.791158
      pz      :     1.523884  p :     4.625176
      px      :     1.287304
      py      :     1.813988
      dz2     :     0.005594  d :     0.037360
      dxz     :     0.009878
      dyz     :     0.003510
      dx2y2   :     0.011086
      dxy     :     0.007293
  2 O s       :     3.698309  s :     3.698309
      pz      :     1.828744  p :     4.573773
      px      :     1.565778
      py      :     1.179250
      dz2     :     0.005843  d :     0.033487
      dxz     :     0.005432
      dyz     :     0.004913
      dx2y2   :     0.005246
      dxy     :     0.012053
  3 O s       :     3.698309  s :     3.698309
      pz      :     1.828744  p :     4.573773
      px      :     1.565778
      py      :     1.179250
      dz2     :     0.005843  d :     0.033487
      dxz     :     0.005432
      dyz     :     0.004913
      dx2y2   :     0.005246
      dxy     :     0.012053
  4 H s       :     0.689003  s :     0.689003
      pz      :     0.016835  p :     0.073769
      px      :     0.025621
      py      :     0.031313
  5 H s       :     0.689003  s :     0.689003
      pz      :     0.016835  p :     0.073769
      px      :     0.025621
      py      :     0.031313


                     *******************************
                     * LOEWDIN POPULATION ANALYSIS *
                     *******************************

----------------------
LOEWDIN ATOMIC CHARGES
----------------------
   0 C :    0.211912
   1 O :   -0.325142
   2 O :   -0.061806
   3 O :   -0.061806
   4 H :    0.118421
   5 H :    0.118421

-------------------------------
LOEWDIN REDUCED ORBITAL CHARGES
-------------------------------
  0 C s       :     2.796656  s :     2.796656
      pz      :     0.721880  p :     2.602620
      px      :     1.000024
      py      :     0.880715
      dz2     :     0.024134  d :     0.388812
      dxz     :     0.065228
      dyz     :     0.047777
      dx2y2   :     0.100467
      dxy     :     0.151205
  1 O s       :     3.564302  s :     3.564302
      pz      :     1.503838  p :     4.711065
      px      :     1.418657
      py      :     1.788570
      dz2     :     0.008187  d :     0.049775
      dxz     :     0.010330
      dyz     :     0.003516
      dx2y2   :     0.019249
      dxy     :     0.008494
  2 O s       :     3.404221  s :     3.404221
      pz      :     1.768177  p :     4.610718
      px      :     1.608599
      py      :     1.233941
      dz2     :     0.008314  d :     0.046867
      dxz     :     0.004943
      dyz     :     0.005633
      dx2y2   :     0.006911
      dxy     :     0.021067
  3 O s       :     3.404221  s :     3.404221
      pz      :     1.768177  p :     4.610718
      px      :     1.608599
      py      :     1.233941
      dz2     :     0.008314  d :     0.046867
      dxz     :     0.004943
      dyz     :     0.005633
      dx2y2   :     0.006911
      dxy     :     0.021067
  4 H s       :     0.696055  s :     0.696055
      pz      :     0.048431  p :     0.185524
      px      :     0.069713
      py      :     0.067380
  5 H s       :     0.696055  s :     0.696055
      pz      :     0.048431  p :     0.185524
      px      :     0.069713
      py      :     0.067380


                      *****************************
                      * MAYER POPULATION ANALYSIS *
                      *****************************

  NA   - Mulliken gross atomic population
  ZA   - Total nuclear charge
  QA   - Mulliken gross atomic charge
  VA   - Mayer's total valence
  BVA  - Mayer's bonded valence
  FA   - Mayer's free valence

  ATOM       NA         ZA         QA         VA         BVA        FA
  0 C      5.4096     6.0000     0.5904     4.3217     4.0409     0.2808
  1 O      8.4537     8.0000    -0.4537     2.2058     1.8234     0.3824
  2 O      8.3056     8.0000    -0.3056     2.3241     1.9957     0.3284
  3 O      8.3056     8.0000    -0.3056     2.3241     1.9957     0.3284
  4 H      0.7628     1.0000     0.2372     0.9935     0.9461     0.0474
  5 H      0.7628     1.0000     0.2372     0.9935     0.9461     0.0474

  Mayer bond orders larger than 0.100000
B(  0-C ,  1-O ) :   1.7936 B(  0-C ,  2-O ) :   1.0988 B(  0-C ,  3-O ) :   1.0988 
B(  2-O ,  4-H ) :   0.9009 B(  3-O ,  5-H ) :   0.9009 


                *******************************************
                * RELAXED MP2 DENSITY POPULATION ANALYSIS *
                *******************************************

------------------------------------------------------------------------------
                           ORCA POPULATION ANALYSIS
------------------------------------------------------------------------------
Input electron density              ... h2co3.pmp2re
BaseName (.gbw .S,...)              ... h2co3

                    ********************************
                    * MULLIKEN POPULATION ANALYSIS *
                    ********************************

-----------------------
MULLIKEN ATOMIC CHARGES
-----------------------
   0 C :    0.359250
   1 O :   -0.337132
   2 O :   -0.230159
   3 O :   -0.230159
   4 H :    0.219100
   5 H :    0.219100
Sum of atomic charges:    0.0000000

--------------------------------
MULLIKEN REDUCED ORBITAL CHARGES
--------------------------------
  0 C s       :     2.954505  s :     2.954505
      pz      :     0.827196  p :     2.490695
      px      :     0.846827
      py      :     0.816672
      dz2     :     0.011614  d :     0.195551
      dxz     :     0.035069
      dyz     :     0.026934
      dx2y2   :     0.048671
      dxy     :     0.073264
  1 O s       :     3.772973  s :     3.772973
      pz      :     1.459329  p :     4.528545
      px      :     1.299667
      py      :     1.769550
      dz2     :     0.005375  d :     0.035614
      dxz     :     0.009344
      dyz     :     0.003518
      dx2y2   :     0.009972
      dxy     :     0.007406
  2 O s       :     3.682514  s :     3.682514
      pz      :     1.794146  p :     4.515168
      px      :     1.547562
      py      :     1.173460
      dz2     :     0.005653  d :     0.032476
      dxz     :     0.005477
      dyz     :     0.005026
      dx2y2   :     0.005183
      dxy     :     0.011138
  3 O s       :     3.682514  s :     3.682514
      pz      :     1.794146  p :     4.515168
      px      :     1.547562
      py      :     1.173460
      dz2     :     0.005653  d :     0.032476
      dxz     :     0.005477
      dyz     :     0.005026
      dx2y2   :     0.005183
      dxy     :     0.011138
  4 H s       :     0.709188  s :     0.709188
      pz      :     0.018125  p :     0.071712
      px      :     0.024565
      py      :     0.029022
  5 H s       :     0.709188  s :     0.709188
      pz      :     0.018125  p :     0.071712
      px      :     0.024565
      py      :     0.029022


                     *******************************
                     * LOEWDIN POPULATION ANALYSIS *
                     *******************************

----------------------
LOEWDIN ATOMIC CHARGES
----------------------
   0 C :    0.107418
   1 O :   -0.255308
   2 O :   -0.036054
   3 O :   -0.036054
   4 H :    0.109999
   5 H :    0.109999

-------------------------------
LOEWDIN REDUCED ORBITAL CHARGES
-------------------------------
  0 C s       :     2.799288  s :     2.799288
      pz      :     0.828289  p :     2.711710
      px      :     0.996370
      py      :     0.887051
      dz2     :     0.023092  d :     0.381585
      dxz     :     0.061099
      dyz     :     0.047333
      dx2y2   :     0.099374
      dxy     :     0.150687
  1 O s       :     3.565370  s :     3.565370
      pz      :     1.451939  p :     4.641292
      px      :     1.430670
      py      :     1.758683
      dz2     :     0.007893  d :     0.048646
      dxz     :     0.010529
      dyz     :     0.003521
      dx2y2   :     0.017817
      dxy     :     0.008886
  2 O s       :     3.405365  s :     3.405365
      pz      :     1.742282  p :     4.584455
      px      :     1.602800
      py      :     1.239373
      dz2     :     0.008231  d :     0.046234
      dxz     :     0.005103
      dyz     :     0.005980
      dx2y2   :     0.006753
      dxy     :     0.020167
  3 O s       :     3.405365  s :     3.405365
      pz      :     1.742282  p :     4.584455
      px      :     1.602800
      py      :     1.239373
      dz2     :     0.008231  d :     0.046234
      dxz     :     0.005103
      dyz     :     0.005980
      dx2y2   :     0.006753
      dxy     :     0.020167
  4 H s       :     0.706424  s :     0.706424
      pz      :     0.048748  p :     0.183577
      px      :     0.069472
      py      :     0.065357
  5 H s       :     0.706424  s :     0.706424
      pz      :     0.048748  p :     0.183577
      px      :     0.069472
      py      :     0.065357


                      *****************************
                      * MAYER POPULATION ANALYSIS *
                      *****************************

  NA   - Mulliken gross atomic population
  ZA   - Total nuclear charge
  QA   - Mulliken gross atomic charge
  VA   - Mayer's total valence
  BVA  - Mayer's bonded valence
  FA   - Mayer's free valence

  ATOM       NA         ZA         QA         VA         BVA        FA
  0 C      5.6408     6.0000     0.3592     4.4965     4.2353     0.2611
  1 O      8.3371     8.0000    -0.3371     2.3518     1.9837     0.3680
  2 O      8.2302     8.0000    -0.2302     2.4054     2.0827     0.3226
  3 O      8.2302     8.0000    -0.2302     2.4054     2.0827     0.3226
  4 H      0.7809     1.0000     0.2191     1.0105     0.9639     0.0465
  5 H      0.7809     1.0000     0.2191     1.0105     0.9639     0.0465

  Mayer bond orders larger than 0.100000
B(  0-C ,  1-O ) :   1.8905 B(  0-C ,  2-O ) :   1.1439 B(  0-C ,  3-O ) :   1.1439 
B(  2-O ,  4-H ) :   0.9058 B(  3-O ,  5-H ) :   0.9058 


-------
TIMINGS
-------

Total time                :    0.823 sec
Integral trafo            :    0.090 sec ( 10.9%)
FC preparation            :    0.002 sec (  0.2%)
I/O of integrals          :    0.005 sec (  0.6%)
K(i,j) operators          :    0.001 sec (  0.1%)
V**(-1/2)                 :    0.013 sec (  1.6%)
Gamma-Trafo               :    0.001 sec (  0.1%)
L(virtual)                :    0.010 sec (  1.2%)
G(D)                      :    0.069 sec (  8.3%)
G(Z)                      :    0.047 sec (  5.7%)
Z-vector solution         :    0.309 sec ( 37.6%)
3-index derivative        :    0.020 sec (  2.5%)
2-index derivative        :    0.026 sec (  3.2%)
Fock matrix gradient      :    0.150 sec ( 18.3%)


---------------------------------------
MP2 TOTAL ENERGY:     -264.114834893 Eh
---------------------------------------

The final MP2 gradient
  0:  -0.07805791   0.00000000  -0.00000000
  1:   0.01739640  -0.00000000  -0.00000000
  2:   0.04010990   0.02390408   0.00000000
  3:   0.04010990  -0.02390408  -0.00000000
  4:  -0.00977915   0.00142862   0.00000000
  5:  -0.00977915  -0.00142862   0.00000000

-----------------------------------
NORM OF THE MP2 GRADIENT:  0.104649
-----------------------------------

Maximum memory used throughout the entire MP2-calculation: 12.9 MB

-------------------------   --------------------
FINAL SINGLE POINT ENERGY      -264.114834892735
-------------------------   --------------------

------------------------------------------------------------------------------
                         ORCA GEOMETRY RELAXATION STEP
------------------------------------------------------------------------------

Reading the OPT-File                    .... done
Getting information on internals        .... done
Copying old internal coords+grads       .... done
Making the new internal coordinates     .... (2022 redundants) done
Validating the new internal coordinates .... (2022 redundants) done
Calculating the B-matrix                .... done
Calculating the G,G- and P matrices     .... done
Transforming gradient to internals      .... done
Projecting the internal gradient        .... done
Number of atoms                         ....   6
Number of internal coordinates          ....  14
Current Energy                          ....  -264.114834893 Eh
Current gradient norm                   ....     0.104649106 Eh/bohr
Maximum allowed component of the step   ....  0.300
Current trust radius                    ....  0.300
Evaluating the initial hessian          ....  (Almloef) done
Projecting the Hessian                  .... done
Forming the augmented Hessian           .... done
Diagonalizing the augmented Hessian     .... done
Last element of RFO vector              ....  0.987976657
Lowest eigenvalues of augmented Hessian:
 -0.011463918  0.036418280  0.036418280  0.036418280  0.377719754
Length of the computed step             ....  0.156484591
The final length of the internal step   ....  0.156484591
Converting the step to Cartesian space:
 Initial RMS(Int)=    0.0418222661
Transforming coordinates:
 Iter   0:  RMS(Cart)=    0.0471893021 RMS(Int)=    1.6797734765
 Iter   5:  RMS(Cart)=    0.0000000222 RMS(Int)=    0.0000000202
done
Storing new coordinates                 .... done

                                .--------------------.
          ----------------------|Geometry convergence|-------------------------
          Item                value                   Tolerance       Converged
          ---------------------------------------------------------------------
          RMS gradient        0.0197937039            0.0000080000      NO
          MAX gradient        0.0552900015            0.0000300000      NO
          RMS step            0.0418222661            0.0001000000      NO
          MAX step            0.1179317351            0.0002000000      NO
          -------------------------------------------------------------------------
          ........................................................
          Max(Bonds)      0.0090      Max(Angles)    6.76
          Max(Dihed)        0.00      Max(Improp)    0.00
          ---------------------------------------------------------------------

The optimization has not yet converged - more geometry cycles are needed


    ---------------------------------------------------------------------------
                         Redundant Internal Coordinates
                            (Angstroem and degrees)

        Definition                    Value    dE/dq     Step     New-Value
    ----------------------------------------------------------------------------
     1. B(O   1,C   0)                1.2300  0.017396 -0.0090    1.2210   
     2. B(O   2,C   0)                1.3300  0.006773 -0.0051    1.3249   
     3. B(O   3,C   0)                1.3300  0.006773 -0.0051    1.3249   
     4. B(H   4,O   2)                0.9600 -0.005482  0.0055    0.9655   
     5. B(H   5,O   3)                0.9600 -0.005482  0.0055    0.9655   
     6. A(O   1,C   0,O   3)          120.00 -0.027645    3.38    123.38   
     7. A(O   2,C   0,O   3)          120.00  0.055290   -6.76    113.24   
     8. A(O   1,C   0,O   2)          120.00 -0.027645    3.38    123.38   
     9. A(C   0,O   2,H   4)          108.00  0.014918   -2.20    105.80   
    10. A(C   0,O   3,H   5)          108.00  0.014918   -2.20    105.80   
    11. D(H   4,O   2,C   0,O   1)      0.00 -0.000000   -0.00     -0.00   
    12. D(H   4,O   2,C   0,O   3)    180.00 -0.000000    0.00    180.00   
    13. D(H   5,O   3,C   0,O   1)      0.00  0.000000    0.00      0.00   
    14. D(H   5,O   3,C   0,O   2)    180.00  0.000000   -0.00    180.00   
    ----------------------------------------------------------------------------

Geometry step timings:
Preparation and reading OPT file:      0.000 s ( 3.271 %)
Internal coordinates            :      0.000 s ( 4.517 %)
B/P matrices and projection     :      0.000 s (20.405 %)
Hessian update/contruction      :      0.000 s (15.421 %)
Making the step                 :      0.000 s (14.642 %)
Converting the step to Cartesian:      0.000 s ( 7.788 %)
Storing new data                :      0.000 s ( 4.673 %)
Checking convergence            :      0.000 s ( 7.165 %)
Final printing                  :      0.000 s (22.118 %)
Total time                      :      0.001 s

Time for energy+gradient        :      3.461 s
Time for complete geometry iter :      3.874 s

         *************************************************************
         *                GEOMETRY OPTIMIZATION CYCLE   2            *
         *************************************************************
---------------------------------
CARTESIAN COORDINATES (ANGSTROEM)
---------------------------------
  C      0.047897   -0.000000    0.000000
  O      1.268860   -0.000000   -0.000000
  O     -0.681045    1.106401   -0.000000
  O     -0.681045   -1.106401   -0.000000
  H     -0.049968    1.837053   -0.000000
  H     -0.049968   -1.837053   -0.000000

----------------------------
CARTESIAN COORDINATES (A.U.)
----------------------------
  NO LB      ZA    FRAG     MASS         X           Y           Z
   0 C     6.0000    0    12.011    0.090511   -0.000000    0.000000
   1 O     8.0000    0    15.999    2.397798   -0.000000   -0.000000
   2 O     8.0000    0    15.999   -1.286988    2.090796   -0.000000
   3 O     8.0000    0    15.999   -1.286988   -2.090796   -0.000000
   4 H     1.0000    0     1.008   -0.094426    3.471528   -0.000000
   5 H     1.0000    0     1.008   -0.094426   -3.471528   -0.000000

--------------------------------
INTERNAL COORDINATES (ANGSTROEM)
--------------------------------
 C      0   0   0     0.000000000000     0.00000000     0.00000000
 O      1   0   0     1.220963498815     0.00000000     0.00000000
 O      1   2   0     1.324945117750   123.37849083     0.00000000
 O      1   2   3     1.324945117750   123.37849083   180.00000000
 H      3   1   2     0.965458430093   105.80377006     0.00000000
 H      4   1   2     0.965458430093   105.80377006     0.00000000

---------------------------
INTERNAL COORDINATES (A.U.)
---------------------------
 C      0   0   0     0.000000000000     0.00000000     0.00000000
 O      1   0   0     2.307286632274     0.00000000     0.00000000
 O      1   2   0     2.503783415023   123.37849083     0.00000000
 O      1   2   3     2.503783415023   123.37849083   180.00000000
 H      3   1   2     1.824452026562   105.80377006     0.00000000
 H      4   1   2     1.824452026562   105.80377006     0.00000000



           ************************************************************
           *        Program running with 6 parallel MPI-processes     *
           *              working on a common directory               *
           ************************************************************
------------------------------------------------------------------------------
                   ___                                                        
                  /   \      - P O W E R E D   B Y -                         
                 /     \                                                     
                 |  |  |   _    _      __       _____    __    __             
                 |  |  |  | |  | |    /  \     |  _  \  |  |  /  |          
                  \  \/   | |  | |   /    \    | | | |  |  | /  /          
                 / \  \   | |__| |  /  /\  \   | |_| |  |  |/  /          
                |  |  |   |  __  | /  /__\  \  |    /   |      \           
                |  |  |   | |  | | |   __   |  |    \   |  |\   \          
                \     /   | |  | | |  |  |  |  | |\  \  |  | \   \       
                 \___/    |_|  |_| |__|  |__|  |_| \__\ |__|  \__/        
                                                                              
                      - O R C A' S   B I G   F R I E N D -                    
                                      &                                       
                       - I N T E G R A L  F E E D E R -                       
                                                                              
 v1 FN, 2020, v2 2021, v3 2022-2024                                           
------------------------------------------------------------------------------


----------------------
SHARK INTEGRAL PACKAGE
----------------------

Number of atoms                             ...      6
Number of basis functions                   ...     66
Number of shells                            ...     30
Maximum angular momentum                    ...      2
Integral batch strategy                     ... SHARK/LIBINT Hybrid
RI-J (if used) integral strategy            ... SPLIT-RIJ (Revised 2003 algorithm where possible)
Printlevel                                  ...      1
Contraction scheme used                     ... SEGMENTED contraction
Prescreening option                         ... SCHWARTZ
   Thresh                                   ... 1.000e-13
   Tcut                                     ... 1.000e-15
   Tpresel                                  ... 1.000e-15 
Coulomb Range Separation                    ... NOT USED
Exchange Range Separation                   ... NOT USED
Multipole approximations                    ... NOT USED
Finite Nucleus Model                        ... NOT USED
CABS basis                                  ... NOT available
Auxiliary Coulomb fitting basis             ... NOT available
Auxiliary J/K fitting basis                 ... NOT available
Auxiliary Correlation fitting basis         ... AVAILABLE
   # of basis functions in Aux-C            ...    252
   # of shells in Aux-C                     ...     84
   Maximum angular momentum in Aux-C        ...      3
Auxiliary 'external' fitting basis          ... NOT available

Checking pre-screening integrals            ... done (  0.0 sec) Dimension = 30
   => SHARK Basis and OBASIS are compatible. Storing Pre-screening
Shell pair information
Shell pair cut-off parameter TPreSel        ...   1.0e-15
Total number of shell pairs                 ...       465
Shell pairs after pre-screening             ...       462
Total number of primitive shell pairs       ...      1769
Primitive shell pairs kept                  ...      1485
          la=0 lb=0:    133 shell pairs
          la=1 lb=0:    160 shell pairs
          la=1 lb=1:     55 shell pairs
          la=2 lb=0:     64 shell pairs
          la=2 lb=1:     40 shell pairs
          la=2 lb=2:     10 shell pairs

Checking whether 4 symmetric matrices of dimension 66 fit in memory
:Max Core in MB      =   4096.00
 MB in use           =      2.58
 MB left             =   4093.42
 MB needed           =      0.07
 Data fit in memory  = YES
Calculating RI/C V-Matrix + Cholesky decomp.... done (  0.0 sec)
Calculating Nuclear repulsion               ... done (  0.0 sec) ENN=    123.585644564494 Eh

Diagonalization of the overlap matrix:
Smallest eigenvalue                        ... 1.167e-02
Time for diagonalization                   ...    0.000 sec
Threshold for overlap eigenvalues          ... 1.000e-07
Number of eigenvalues below threshold      ... 0
Time for construction of square roots      ...    0.000 sec
Total time needed                          ...    0.001 sec

-------------------
DFT GRID GENERATION
-------------------

General Integration Accuracy     IntAcc      ... 4.388
Radial Grid Type                 RadialGrid  ... OptM3 with GC (2021)
Angular Grid (max. ang.)         AngularGrid ... 4 (Lebedev-302)
Angular grid pruning method      GridPruning ... 4 (adaptive)
Weight generation scheme         WeightScheme... mBecke (2022)
Basis function cutoff            BFCut       ... 1.0000e-13
Integration weight cutoff        WCut        ... 1.0000e-14
Partially contracted basis set               ... off
Rotationally invariant grid construction     ... off
Angular grids for H and He will be reduced by one unit

Total number of grid points                  ...    30963
Total number of batches                      ...      487
Average number of points per batch           ...       63
Average number of grid points per atom       ...     5160
Grids setup in   0.1 sec
Initializing property integral containers    ... done (  0.0 sec)

SHARK setup successfully completed in   0.2 seconds

Maximum memory used throughout the entire STARTUP-calculation: 8.4 MB


           ************************************************************
           *        Program running with 6 parallel MPI-processes     *
           *              working on a common directory               *
           ************************************************************
Occupation numbers will be reassigned to an Aufbau configuration
             **** ENERGY FILE WAS UPDATED (h2co3.en.tmp) ****
Finished Guess after   0.3 sec
Maximum memory used throughout the entire GUESS-calculation: 4.9 MB


           ************************************************************
           *        Program running with 6 parallel MPI-processes     *
           *              working on a common directory               *
           ************************************************************
----------------------------------------D-I-I-S--------------------------------------------
Iteration    Energy (Eh)           Delta-E    RMSDP     MaxDP     DIISErr   Damp  Time(sec)
-------------------------------------------------------------------------------------------
               ***  Starting incremental Fock matrix formation  ***
    1    -263.4458534957049096     0.00e+00  9.83e-04  3.12e-03  2.52e-02  0.700   0.0
    2    -263.4465167281173876    -6.63e-04  8.65e-04  2.88e-03  1.90e-02  0.700   0.0
                               ***Turning on AO-DIIS***
    3    -263.4470507137529012    -5.34e-04  7.95e-04  2.78e-03  1.45e-02  0.700   0.0
    4    -263.4474660260112273    -4.15e-04  2.13e-03  7.66e-03  1.09e-02  0.000   0.0
                              *** Initializing SOSCF ***
---------------------------------------S-O-S-C-F--------------------------------------
Iteration    Energy (Eh)           Delta-E    RMSDP     MaxDP     MaxGrad    Time(sec)
--------------------------------------------------------------------------------------
    5    -263.4486757050760275    -1.21e-03  2.07e-04  8.29e-04  1.19e-03     0.1
               *** Restarting incremental Fock matrix formation ***
    6    -263.4486837693390839    -8.06e-06  8.27e-05  2.80e-04  3.04e-04     0.0
    7    -263.4486847402521335    -9.71e-07  5.79e-05  2.68e-04  1.03e-04     0.0
    8    -263.4486849002263398    -1.60e-07  1.38e-05  6.14e-05  4.79e-05     0.0
    9    -263.4486849273670828    -2.71e-08  2.83e-06  1.88e-05  1.15e-05     0.0
   10    -263.4486849284307937    -1.06e-09  2.13e-06  1.28e-05  4.68e-06     0.0
   11    -263.4486849287454788    -3.15e-10  5.66e-07  3.17e-06  1.04e-06     0.0
   12    -263.4486849287659993    -2.05e-11  1.18e-07  4.24e-07  2.33e-07     0.0
                 **** Energy Check signals convergence ****

               *****************************************************
               *                     SUCCESS                       *
               *           SCF CONVERGED AFTER  12 CYCLES          *
               *****************************************************

             **** ENERGY FILE WAS UPDATED (h2co3.en.tmp) ****

----------------
TOTAL SCF ENERGY
----------------

Total Energy       :       -263.44868492876873 Eh           -7168.80317 eV

Components:
Nuclear Repulsion  :        123.58564456449432 Eh            3362.93636 eV
Electronic Energy  :       -387.03432949326304 Eh          -10531.73953 eV
One Electron Energy:       -607.21632391624223 Eh          -16523.19620 eV
Two Electron Energy:        220.18199442297919 Eh            5991.45667 eV

Virial components:
Potential Energy   :       -526.05565771382157 Eh          -14314.70219 eV
Kinetic Energy     :        262.60697278505285 Eh            7145.89902 eV
Virial Ratio       :          2.00320521627735

---------------
SCF CONVERGENCE
---------------

  Last Energy change         ...    2.0520e-11  Tolerance :   1.0000e-10
  Last MAX-Density change    ...    4.2445e-07  Tolerance :   1.0000e-09
  Last RMS-Density change    ...    1.1751e-07  Tolerance :   1.0000e-10
[...]
Total Dipole Moment    :      0.017453430       0.000000000       0.000000004
                        -----------------------------------------
Magnitude (a.u.)       :      0.017453430
Magnitude (Debye)      :      0.044363094



--------------------
Rotational spectrum 
--------------------
 
Rotational constants in cm-1:             0.398906             0.378624             0.194250 
Rotational constants in MHz :         11958.912026         11350.866962          5823.479471 

Dipole components along the rotational axes: 
x,y,z [a.u.] :     0.000000    -0.017453     0.000000 
x,y,z [Debye]:     0.000000    -0.044363     0.000000 

 

Dipole moment calculation done in   0.0 sec 

Maximum memory used throughout the entire PROP-calculation: 3.1 MB

----------------------------------------------------------------------------
                           ORCA NUMERICAL FREQUENCIES
                              (6-process run)
----------------------------------------------------------------------------

Number of atoms                ... 6
Central differences            ... used
Translation invariance         ... used
Number of displacements        ... 36 - 6
Numerical increment            ... 5.000e-03 bohr
IR-spectrum generation         ... on
Raman-spectrum generation      ... off
Surface Crossing Hessian       ... off

The output will be reduced. Please look at the following files:
SCF program output             ... >h2co3.lastscf
Integral program output        ... >h2co3.lastint
Gradient program output        ... >h2co3.lastgrad
Dipole moment program output   ... >h2co3.lastmom

List of participating nodes    ...  h2co3.hostnames

	<< Calculating gradient on displaced geometry   4 (of  30) >>
	<< Calculating gradient on displaced geometry   1 (of  30) >>
	<< Calculating gradient on displaced geometry   2 (of  30) >>
	<< Calculating gradient on displaced geometry   3 (of  30) >>
	<< Calculating gradient on displaced geometry   6 (of  30) >>
	<< Calculating gradient on displaced geometry   5 (of  30) >>
	<< Calculating gradient on displaced geometry   7 (of  30) >>
	<< Calculating gradient on displaced geometry   8 (of  30) >>
	<< Calculating gradient on displaced geometry   9 (of  30) >>
	<< Calculating gradient on displaced geometry  11 (of  30) >>
	<< Calculating gradient on displaced geometry  10 (of  30) >>
	<< Calculating gradient on displaced geometry  12 (of  30) >>
	<< Calculating gradient on displaced geometry  13 (of  30) >>
	<< Calculating gradient on displaced geometry  14 (of  30) >>
	<< Calculating gradient on displaced geometry  15 (of  30) >>
	<< Calculating gradient on displaced geometry  16 (of  30) >>
	<< Calculating gradient on displaced geometry  17 (of  30) >>
	<< Calculating gradient on displaced geometry  18 (of  30) >>
	<< Calculating gradient on displaced geometry  19 (of  30) >>
	<< Calculating gradient on displaced geometry  20 (of  30) >>
	<< Calculating gradient on displaced geometry  21 (of  30) >>
	<< Calculating gradient on displaced geometry  22 (of  30) >>
	<< Calculating gradient on displaced geometry  23 (of  30) >>
	<< Calculating gradient on displaced geometry  24 (of  30) >>
	<< Calculating gradient on displaced geometry  25 (of  30) >>
	<< Calculating gradient on displaced geometry  26 (of  30) >>
	<< Calculating gradient on displaced geometry  27 (of  30) >>
	<< Calculating gradient on displaced geometry  28 (of  30) >>
	<< Calculating gradient on displaced geometry  29 (of  30) >>
	<< Calculating gradient on displaced geometry  30 (of  30) >>

-----------------------
VIBRATIONAL FREQUENCIES
-----------------------

Scaling factor for frequencies =  1.000000000  (already applied!)

     0:       0.00 cm**-1
     1:       0.00 cm**-1
     2:       0.00 cm**-1
     3:       0.00 cm**-1
     4:       0.00 cm**-1
     5:       0.00 cm**-1
     6:     542.14 cm**-1
     7:     565.55 cm**-1
     8:     615.66 cm**-1
     9:     616.42 cm**-1
    10:     807.49 cm**-1
    11:    1011.93 cm**-1
    12:    1196.21 cm**-1
    13:    1304.05 cm**-1
    14:    1512.96 cm**-1
    15:    1920.63 cm**-1
    16:    3876.54 cm**-1
    17:    3878.81 cm**-1


------------
NORMAL MODES
------------

These modes are the Cartesian displacements weighted by the diagonal matrix
M(i,i)=1/sqrt(m[i]) where m[i] is the mass of the displaced atom
Thus, these vectors are normalized but *not* orthogonal

                  0          1          2          3          4          5    
      0       0.000000   0.000000   0.000000   0.000000   0.000000   0.000000
      1       0.000000   0.000000   0.000000   0.000000   0.000000   0.000000
      2       0.000000   0.000000   0.000000   0.000000   0.000000   0.000000
      3       0.000000   0.000000   0.000000   0.000000   0.000000   0.000000
      4       0.000000   0.000000   0.000000   0.000000   0.000000   0.000000
      5       0.000000   0.000000   0.000000   0.000000   0.000000   0.000000
      6       0.000000   0.000000   0.000000   0.000000   0.000000   0.000000
      7       0.000000   0.000000   0.000000   0.000000   0.000000   0.000000
      8       0.000000   0.000000   0.000000   0.000000   0.000000   0.000000
      9       0.000000   0.000000   0.000000   0.000000   0.000000   0.000000
     10       0.000000   0.000000   0.000000   0.000000   0.000000   0.000000
     11       0.000000   0.000000   0.000000   0.000000   0.000000   0.000000
     12       0.000000   0.000000   0.000000   0.000000   0.000000   0.000000
     13       0.000000   0.000000   0.000000   0.000000   0.000000   0.000000
     14       0.000000   0.000000   0.000000   0.000000   0.000000   0.000000
     15       0.000000   0.000000   0.000000   0.000000   0.000000   0.000000
     16       0.000000   0.000000   0.000000   0.000000   0.000000   0.000000
     17       0.000000   0.000000   0.000000   0.000000   0.000000   0.000000
                  6          7          8          9         10         11    
      0       0.000000   0.202342  -0.000000  -0.000242  -0.000000  -0.147613
      1      -0.000000  -0.000208   0.000002  -0.164012   0.000000   0.000043
      2       0.000367   0.000000   0.062690   0.000003   0.803377  -0.000000
      3       0.000000   0.216318  -0.000000  -0.000274  -0.000000  -0.254934
      4       0.000000   0.000434  -0.000004   0.353550  -0.000000   0.000046
      5      -0.000038   0.000000   0.008544   0.000000  -0.249412   0.000000
      6       0.000000  -0.146112  -0.000002   0.213452  -0.000000   0.160958
      7      -0.000000  -0.257872   0.000001  -0.094014   0.000000  -0.303889
      8      -0.075163   0.000000   0.016829   0.000001  -0.197322   0.000000
      9      -0.000000  -0.146589   0.000002  -0.213068   0.000000   0.160735
     10      -0.000000   0.257660   0.000001  -0.094706   0.000000   0.303766
     11       0.075156   0.000000   0.016461   0.000001  -0.197643   0.000000
     12       0.000000  -0.598555  -0.000005   0.510611   0.000000   0.349230
     13      -0.000000   0.094658   0.000003  -0.330927   0.000000  -0.464582
     14       0.701266  -0.000001  -0.707209  -0.000035   0.325898  -0.000000
     15      -0.000000  -0.600127   0.000006  -0.509482  -0.000000   0.350080
     16      -0.000000  -0.095703   0.000004  -0.330948  -0.000000   0.465295
     17      -0.704931  -0.000001  -0.703774  -0.000032   0.328894  -0.000000
                 12         13         14         15         16         17    
      0       0.000048  -0.006384   0.000024  -0.733808  -0.000140  -0.002374
      1       0.106948  -0.000282  -0.443424  -0.000003   0.002476  -0.000145
      2       0.000000   0.000000   0.000000   0.000000   0.000000   0.000000
      3       0.000277   0.100591  -0.000043   0.419406  -0.000063  -0.001068
      4       0.011626   0.000017   0.050867  -0.000001  -0.000661   0.000042
      5      -0.000000  -0.000000  -0.000000  -0.000000  -0.000000   0.000000
      6       0.112319  -0.081347  -0.010032   0.083944   0.024331  -0.026873
      7      -0.072690  -0.001464   0.113811  -0.040353   0.032658  -0.037982
      8      -0.000000   0.000000  -0.000000   0.000000  -0.000000   0.000000
      9      -0.112751  -0.081004   0.010097   0.083932  -0.027335  -0.023807
     10      -0.072786   0.001737   0.113804   0.040351   0.036917   0.033851
     11       0.000000   0.000000   0.000000   0.000000   0.000000   0.000000
     12      -0.542724   0.528988  -0.448506  -0.288830  -0.400158   0.450071
     13       0.424266  -0.458207   0.432118   0.225314  -0.528359   0.595322
     14       0.000000  -0.000000   0.000000  -0.000000   0.000000  -0.000000
     15       0.544625   0.527320   0.447876  -0.288714   0.450507   0.399544
     16       0.425851   0.456954   0.431514  -0.225236  -0.594961  -0.528685
     17      -0.000000  -0.000000  -0.000000  -0.000000  -0.000000  -0.000000


-----------
IR SPECTRUM
-----------

 Mode   freq       eps      Int      T**2         TX        TY        TZ
       cm**-1   L/(mol*cm) km/mol    a.u.
----------------------------------------------------------------------------
  6:    542.14   0.000000    0.00  0.000000  (-0.000000 -0.000000 -0.000375)
  7:    565.55   0.000939    4.74  0.000518  (-0.022759 -0.000121 -0.000000)
  8:    615.66   0.044153  223.13  0.022380  ( 0.000000  0.000002 -0.149599)
  9:    616.42   0.010770   54.43  0.005453  ( 0.000047 -0.073841 -0.000003)
 10:    807.49   0.013927   70.38  0.005382  ( 0.000000 -0.000000  0.073364)
 11:   1011.93   0.003227   16.31  0.000995  (-0.031546  0.000068 -0.000000)
 12:   1196.21   0.083495  421.95  0.021782  ( 0.000061  0.147586 -0.000000)
 13:   1304.05   0.007626   38.54  0.001825  ( 0.042718 -0.000286 -0.000000)
 14:   1512.96   0.040345  203.89  0.008321  (-0.000028 -0.091222 -0.000000)
 15:   1920.63   0.092171  465.79  0.014976  (-0.122376  0.000000  0.000000)
 16:   3876.54   0.042803  216.31  0.003446  ( 0.001141 -0.058689 -0.000000)
 17:   3878.81   0.004905   24.79  0.000395  ( 0.019561  0.003469 -0.000000)

* The epsilon (eps) is given for a Dirac delta lineshape.
** The dipole moment derivative (T) already includes vibrational overlap.

The first frequency considered to be a vibration is 6
The total number of vibrations considered is 12


--------------------------
THERMOCHEMISTRY AT 298.15K
--------------------------

Temperature         ...   298.15 K
Pressure            ...     1.00 atm
Total Mass          ...    62.02 AMU
Quasi RRHO          ...     True
Cut-Off Frequency   ...     1.00 cm^-1

Throughout the following assumptions are being made:
  (1) The electronic state is orbitally nondegenerate
  (2) There are no thermally accessible electronically excited states
  (3) Hindered rotations indicated by low frequency modes are not
      treated as such but are treated as vibrations and this may
      cause some error
  (4) All equations used are the standard statistical mechanics
      equations for an ideal gas
  (5) All vibrations are strictly harmonic

freq.     542.14  E(vib)   ...       0.12 
freq.     565.55  E(vib)   ...       0.11 
freq.     615.66  E(vib)   ...       0.10 
freq.     616.42  E(vib)   ...       0.09 
freq.     807.49  E(vib)   ...       0.05 
freq.    1011.93  E(vib)   ...       0.02 
freq.    1196.21  E(vib)   ...       0.01 
freq.    1304.05  E(vib)   ...       0.01 
freq.    1512.96  E(vib)   ...       0.00 
freq.    1920.63  E(vib)   ...       0.00 
freq.    3876.54  E(vib)   ...       0.00 
freq.    3878.81  E(vib)   ...       0.00 

------------
INNER ENERGY
------------

The inner energy is: U= E(el) + E(ZPE) + E(vib) + E(rot) + E(trans)
    E(el)   - is the total energy from the electronic structure calculation
              = E(kin-el) + E(nuc-el) + E(el-el) + E(nuc-nuc)
    E(ZPE)  - the the zero temperature vibrational energy from the frequency calculation
    E(vib)  - the the finite temperature correction to E(ZPE) due to population
              of excited vibrational states
    E(rot)  - is the rotational thermal energy
    E(trans)- is the translational thermal energy

Summary of contributions to the inner energy U:
Electronic energy                ...   -264.12445593 Eh
Zero point energy                ...      0.04066165 Eh      25.52 kcal/mol
Thermal vibrational correction   ...      0.00082240 Eh       0.52 kcal/mol
Thermal rotational correction    ...      0.00141627 Eh       0.89 kcal/mol
Thermal translational correction ...      0.00141627 Eh       0.89 kcal/mol
-----------------------------------------------------------------------
Total thermal energy                   -264.08013933 Eh


Summary of corrections to the electronic energy:
(perhaps to be used in another calculation)
Total thermal correction                  0.00365495 Eh       2.29 kcal/mol
Non-thermal (ZPE) correction              0.04066165 Eh      25.52 kcal/mol
-----------------------------------------------------------------------
Total correction                          0.04431660 Eh      27.81 kcal/mol


--------
ENTHALPY
--------

The enthalpy is H = U + kB*T
                kB is Boltzmann's constant
Total thermal energy              ...   -264.08013933 Eh 
Thermal Enthalpy correction       ...      0.00094421 Eh       0.59 kcal/mol
-----------------------------------------------------------------------
Total Enthalpy                    ...   -264.07919512 Eh


Note: Rotational entropy computed according to Herzberg 
Infrared and Raman Spectra, Chapter V,1, Van Nostrand Reinhold, 1945 
Point Group:  C2v, Symmetry Number:   2  
Rotational constants in cm-1:     0.398907     0.378624     0.194251 

Vibrational entropy computed according to the QRRHO of S. Grimme
Chem.Eur.J. 2012 18 9955 using a reference frequency of 100.0 cm-1


-------
ENTROPY
-------

The entropy contributions are T*S = T*(S(el)+S(vib)+S(rot)+S(trans))
     S(el)   - electronic entropy
     S(vib)  - vibrational entropy
     S(rot)  - rotational entropy
     S(trans)- translational entropy
The entropies will be listed as multiplied by the temperature to get
units of energy

Electronic entropy                ...      0.00000000 Eh      0.00 kcal/mol
Vibrational entropy               ...      0.00109006 Eh      0.68 kcal/mol
Rotational entropy                ...      0.01052229 Eh      6.60 kcal/mol
Translational entropy             ...      0.01819476 Eh     11.42 kcal/mol
-----------------------------------------------------------------------
Final entropy term                ...      0.02980711 Eh     18.70 kcal/mol

In case the symmetry of your molecule has not been determined correctly
or in case you have a reason to use a different symmetry number we print 
out the resulting rotational entropy values for sn=1,12:

 non-linear molecules -----------------------------------
|  sn= 1 | S(rot)=       0.01117674 Eh      7.01 kcal/mol|
|  sn= 2 | S(rot)=       0.01052229 Eh      6.60 kcal/mol|
|  sn= 3 | S(rot)=       0.01013946 Eh      6.36 kcal/mol|
|  sn= 4 | S(rot)=       0.00986783 Eh      6.19 kcal/mol|
|  sn= 5 | S(rot)=       0.00965714 Eh      6.06 kcal/mol|
|  sn= 6 | S(rot)=       0.00948500 Eh      5.95 kcal/mol|
|  sn= 7 | S(rot)=       0.00933945 Eh      5.86 kcal/mol|
|  sn= 8 | S(rot)=       0.00921338 Eh      5.78 kcal/mol|
|  sn= 9 | S(rot)=       0.00910217 Eh      5.71 kcal/mol|
|  sn=10 | S(rot)=       0.00900269 Eh      5.65 kcal/mol|
|  sn=11 | S(rot)=       0.00891270 Eh      5.59 kcal/mol|
|  sn=12 | S(rot)=       0.00883054 Eh      5.54 kcal/mol|
 linear molecules ---------------------------------------
|  Dinfh | S(rot)=       0.00687295 Eh      4.31 kcal/mol|
|  Cinfv | S(rot)=       0.00752740 Eh      4.72 kcal/mol|
 --------------------------------------------------------


-------------------
GIBBS FREE ENERGY
-------------------

The Gibbs free energy is G = H - T*S

Total enthalpy                    ...   -264.07919512 Eh 
Total entropy correction          ...     -0.02980711 Eh    -18.70 kcal/mol
-----------------------------------------------------------------------
Final Gibbs free energy         ...   -264.10900223 Eh

For completeness - the Gibbs free energy minus the electronic energy
G-E(el)                           ...      0.01545370 Eh      9.70 kcal/mol



--------------------------------
SUGGESTED CITATIONS FOR THIS RUN
--------------------------------

Below you find a list of papers that are relevant to this ORCA run
We neither can nor want to force you to cite these papers, but we appreciate if you do
You receive ORCA, which is the product of decades of hard work by many enthusiastic individuals, for free
The only thing we kindly ask in return is that you cite our papers,
We deeply appreciate it, if you show your appreciation for ORCA by not just citing the generic ORCA reference.

Please note that relegating all ORCA citations to the supporting information does *not* help us.
SI sections are not indexed - citations you put there will not count into any citation statistics
But we need these citations in order to attract the funding resources that allow us to do what we are doing

Therefore, if you are a happy ORCA user, please consider citing a few of the papers listed below in the main body of your paper

In addition to the list printed below, the program has created the file h2co3.bibtex that contains the list in bibtex format
You can import this file easily into all common literature databanks and citation aid programs


List of essential papers. We consider these as the minimum necessary citations

  1. Neese, F.
     Software update: the ORCA program system, version 6.0
     WIRES Comput. Molec. Sci. 2025 15(1), e70019
     doi.org/10.1002/wcms.7019

List of papers to cite with high priority. The work reported in these papers was absolutely
necessary for this run to complete.
Our perspective: the developers of density functionals and basis sets usually get cited in chemistry papers
Good! But without the algorithms to do something with them, the functionals or basis sets would not do anything.
Hence, in our opinion, the algorithm design and method developments papers are equally worthy of getting cited

  1. Neese, F.
     The SHARK Integral Generation and Digestion System
     J. Comp. Chem. 2022 44(3), 381
     doi.org/10.1002/jcc.26942

List of suggested additional citations. These are papers that are important in the 'surrounding' of 
of this run, or papers that preceded the highly important papers. If you like your results we are grateful for a citation.

  1. Neese, F.
     The ORCA program system
     WIRES Comput. Molec. Sci. 2012 2(1), 73-78
     doi.org/10.1002/wcms.81
  2. Neese, F.
     Software update: the ORCA program system, version 4.0
     WIRES Comput. Molec. Sci. 2018 8(1), 1-6
     doi.org/10.1002/wcms.1327
  3. Neese, F.; Wennmohs, F.; Becker, U.; Riplinger, C.
     The ORCA quantum chemistry program package
     J. Chem. Phys. 2020 152(22), 224108
     doi.org/10.1063/5.0004608
  4. Neese, F.
     Software update: The ORCA program system—Version 5.0
     WIRES Comput. Molec. Sci. 2022 12(1), e1606
     doi.org/10.1002/wcms.1606

List of optional additional citations

  1. Neese, F.
     Approximate second-order SCF convergence for spin unrestricted wavefunctions
     Chem. Phys. Lett. 2000 325(1-3), 93-98
     doi.org/10.1016/s0009-2614(00)00662-x

Timings for individual modules:

Sum of individual times          ...       55.856 sec (=   0.931 min)
Startup calculation              ...        5.589 sec (=   0.093 min)  10.0 %
SCF iterations                   ...       10.814 sec (=   0.180 min)  19.4 %
Property calculations            ...        0.517 sec (=   0.009 min)   0.9 %
MP2 module                       ...       11.311 sec (=   0.189 min)  20.3 %
Geometry relaxation              ...        0.009 sec (=   0.000 min)   0.0 %
Numerical frequency calculation  ...       27.616 sec (=   0.460 min)  49.4 %
                             ****ORCA TERMINATED NORMALLY****
TOTAL RUN TIME: 0 days 0 hours 0 minutes 56 seconds 438 msec
