
                                 *****************
                                 * O   R   C   A *
                                 *****************

                                            #,                                       
                                            ###                                      
                                            ####                                     
                                            #####                                    
                                            ######                                   
                                           ########,                                 
                                     ,,################,,,,,                         
                               ,,#################################,,                 
                          ,,##########################################,,             
                       ,#########################################, ''#####,          
                    ,#############################################,,   '####,        
                  ,##################################################,,,,####,       
                ,###########''''           ''''###############################       
              ,#####''   ,,,,##########,,,,          '''####'''          '####       
            ,##' ,,,,###########################,,,                        '##       
           ' ,,###''''                  '''############,,,                           
         ,,##''                                '''############,,,,        ,,,,,,###''
      ,#''                                            '''#######################'''  
     '                                                          ''''####''''         
             ,#######,   #######,   ,#######,      ##                                
            ,#'     '#,  ##    ##  ,#'     '#,    #''#        ,####,    ,#,          
            ##       ##  ##   ,#'  ##            #'  '#       #'       ,# #          
            ##       ##  #######   ##           ,######,      #####,      #          
            '#,     ,#'  ##    ##  '#,     ,#' ,#      #,     #,   #      #          
             '#######'   ##     ##  '#######'  #'      '#     '####' #    #          



                #########################################################
                #                        -***-                          #
                #          Department of theory and spectroscopy        #
                #                                                       #
                #                      Frank Neese                      #
                #                                                       #
                #     Directorship, Architecture, Infrastructure        #
                #                    SHARK, DRIVERS                     #
                #        Core code/Algorithms in most modules           #
                #                                                       #
                #        Max Planck Institute fuer Kohlenforschung      #
                #                Kaiser Wilhelm Platz 1                 #
                #                 D-45470 Muelheim/Ruhr                 #
                #                      Germany                          #
                #                                                       #
                #                  All rights reserved                  #
                #                        -***-                          #
                #########################################################


                         Program Version 6.1.0  -  RELEASE   -
                                (GIT: $679e74b$)
                          ($2025-06-10 18:02:51 +0200$)


 With contributions from (in alphabetic order):
[Max-Planck-Institut fuer Kohlenforschung]                               
  Daniel Aravena         : Magnetic Suceptibility                        
  Michael Atanasov       : Ab Initio Ligand Field Theory (pilot matlab implementation)
  Alexander A. Auer      : GIAO ZORA, VPT2 properties, NMR spectrum      
  Ute Becker             : All parallelization in ORCA, NUMFREQ, NUMCALC 
  Giovanni Bistoni       : ED, misc. LED, open-shell LED, HFLD           
  Dmytro Bykov           : pre 5.0 version of the SCF Hessian            
  Marcos Casanova-Páez   : Triplet and SCS-CIS(D). UHF-(DLPNO)-IP/EA/STEOM-CCSD. UHF-CVS-IP/STEOM-CCSD   
  Vijay G. Chilkuri      : MRCI spin determinant printing, contributions to CSF-ICE 
  Pauline Colinet        : FMM embedding                                 
  Dipayan Datta          : RHF DLPNO-CCSD density                        
  Achintya Kumar Dutta   : EOM-CC, STEOM-CC                              
  Nicolas Foglia         : Exact transition moments, OPA infrastructure, MCD improvements    
  Dmitry Ganyushin       : Spin-Orbit,Spin-Spin,Magnetic field MRCI      
  Miquel Garcia-Rates    : C-PCM and meta-GGA Hessian, CCSD/C-PCM, Gaussian charge scheme 
  Tiago L. C. Gouveia    : GS-ROHF, GS-ROCIS                             
  Yang Guo               : DLPNO-NEVPT2, F12-NEVPT2, CIM, IAO-localization        
  Andreas Hansen         : Spin unrestricted coupled pair/coupled cluster methods 
  Ingolf Harden          : AUTO-CI MPn and infrastructure                
  Benjamin Helmich-Paris : MC-RPA, TRAH-(SCF,CASSCF), AVAS, COSX integrals, SCF dyn. polar., MC-PDFT, srDFT 
  Lee Huntington         : MR-EOM, pCC                                   
  Robert Izsak           : Overlap fitted RIJCOSX, COSX-SCS-MP3, EOM     
  Riya Kayal             : Wick's Theorem for AUTO-CI, AUTO-CI UHF-CCSDT 
  Emily Kempfer          : AUTO-CI RHF CISDT and CCSDT, approximate NEVPT4
  Christian Kollmar      : KDIIS, OOCD, Brueckner-CCSD(T), CCSD density, CASPT2, CASPT2-K, improved NEVPT2 
  Axel Koslowski         : Symmetry handling                             
  Simone Kossmann        : meta-GGA functionals, TD-DFT gradient, OOMP2, (MP2 Hessian; deprecated post 5.0) 
  Lucas Lang             : DCDCAS, Hyperfine gauge corrections, ICE-SOC+SSC
  Marvin Lechner         : AUTO-CI (C++ implementation), FIC-MRCC        
  Spencer Leger          : CASSCF response                               
  Dagmar Lenk            : GEPOL surface, SMD, ORCA-2-JSON               
  Dimitrios Liakos       : Extrapolation schemes; Compound Job, Property file
  Dimitrios Manganas     : Further ROCIS development; embedding schemes. LFT, Crystal Embedding 
  Dimitrios Pantazis     : SARC Basis sets                               
  Anastasios Papadopoulos: AUTO-CI, single reference methods and gradients 
  Taras Petrenko         : pre 6.0 DFT Hessian and TD-DFT gradient,  ECA, NRVS 
  Petra Pikulova         : Analytic Raman intensities                    
  Peter Pinski           : DLPNO-MP2, DLPNO-MP2 Gradient                 
  Shashank Vittal Rao    : ES-AILFT, MagRelax                            
  Christoph Reimann      : Effective Core Potentials                     
  Marius Retegan         : Local ZFS, SOC                                
  Christoph Riplinger    : Optimizer, TS searches, QM/MM, DLPNO-CCSD(T), (RO)-DLPNO pert. Triples 
  Michael Roemelt        : Original ROCIS implementation, recursive CI coupling coefficients
  Masaaki Saitow         : Open-shell DLPNO-CCSD energy and density      
  Barbara Sandhoefer     : DKH picture change effects                    
  Yorick L. A. Schmerwitz: GMF and freeze-and-release deltaSCF, NEB S-IDPP initial path                    
  Kantharuban Sivalingam : CASSCF convergence/infrastructure, NEVPT2, NEVPT3, NEVPT4(SD), FIC-MRCI and CEPA variants
  Bernardo de Souza      : ESD, SOC TD-DFT                               
  Georgi L. Stoychev     : AutoAux, RI-MP2 NMR, DLPNO-MP2 response, X2C  
  Van Anh Tran           : RI-MP2 g-tensors                              
  Willem Van den Heuvel  : Paramagnetic NMR                              
  Zikuan Wang            : NOTCH, Electric field optimization            
  Frank Wennmohs         : Technical directorship and infrastructure     
  Hang Xu                : AUTO-CI-Response properties                   
                                                                         
[FACCTs GmbH]                                                            
  Markus Bursch, Nicolas Foglia, Miquel Garcia-Rates, Ingolf Harden, Hagen Neugebauer, Anastasios Papadopoulos, 
  Christoph Riplinger, Bernardo de Souza, Georgi L. Stoychev                                                    
                                                                 
  APM, various basis sets, CI-OPT, improved COSX, DLPNO-Multilevel,           
  DOCKER, DRACO, updates on ESD, Fragmentator, GOAT, IRC, LR-CPCM, L-BFGS, MBIS, meta-GGA TD-DFT gradient, ML-optimized integration grids, 
  MM, NACMEs, nearIR, NEB, NEB-TS, NL-DFT gradient (VV10), 2- and 3-layer-ONIOM, interface openCOSMO-RS, QMMM,   
  Crystal-QMMM, RESP, rigid body optimization, SF, symmetry and pop. for TD-DFT, various functionals, SOLVATOR                                   
                                                                         
[Other institutions]                                                     
  V. Asgeirsson          : NEB                                           
  Christoph Bannwarth    : sTDA-DFT, sTD-DFT, PBEh-3c, B97-3c, D3        
  Giovanni Bistoni       : ETS/NOCV, ADLD/ADEX, COVALED                  
  Martin Brehm           : Molecular dynamics                            
  Ronald Cardenas        : ETS/NOCV                                      
  Martina Colucci        : COVALED                                       
  Sebastian Ehlert       : rSCAN, r2SCAN, r2SCAN-3c, D4, dhf basis sets  
  Marvin Friede          : D4 for Fr, Ra, Ac-Lr                          
  Lars Goerigk           : TD-DFT with DH, B97 family of functionals     
  Stefan Grimme          : VdW corrections, initial TS optimization, DFT functionals, gCP, sTDA/sTD-DF 
  Waldemar Hujo          : DFT-NL                                        
  H. Jonsson             : NEB                                           
  Holger Kruse           : gCP                                           
  Marcel Mueller         : wB97X-3c, vDZP basis set                      
  Hagen Neugebauer       : wr2SCAN, Native XTB                           
  Gianluca Regni         : ADLD/ADEX                                     
  Tobias Risthaus        : pre 6.0 range-separated hybrid DFT and stability analysis
  Lukas Wittmann         : regularized MP2, r2SCAN double-hybrids, wr2SCAN        
                                                                         
We gratefully acknowledge several colleagues who have allowed us to      
interface, adapt or use parts of their codes:                            
  Ed Valeev, F. Pavosevic, A. Kumar             : LibInt (2-el integral package), F12 methods 
  Garnet Chan, S. Sharma, J. Yang, R. Olivares  : DMRG                   
  Ulf Ekstrom                                   : XCFun DFT Library      
  Mihaly Kallay                                 : mrcc  (arbitrary order and MRCC methods)
  Frank Weinhold                                : gennbo (NPA and NBO analysis)           
  Simon Mueller                                 : openCOSMO-RS                            
  Christopher J. Cramer and Donald G. Truhlar   : smd solvation model                     
  S Lehtola, MJT Oliveira, MAL Marques          : LibXC Library                           
  Liviu Ungur et al                             : ANISO software                          


 Your calculation uses the libint2 library for the computation of 2-el integrals
 For citations please refer to: http://libint.valeyev.net

 Your ORCA version has been built with support for libXC version: 7.0.0
 For citations please refer to: https://libxc.gitlab.io

 This ORCA versions uses:
   CBLAS   interface :  Fast vector & matrix operations
   LAPACKE interface :  Fast linear algebra routines
   SCALAPACK package :  Parallel linear algebra routines
   Shared memory     :  Shared parallel matrices
   BLAS/LAPACK       :  OpenBLAS 0.3.29  USE64BITINT DYNAMIC_ARCH NO_AFFINITY Haswell SINGLE_THREADED
        Core in use  :  Haswell
   Copyright (c) 2011-2014, The OpenBLAS Project


  ***********************************
  * Starting time: Tue Sep 30 10:56:00 2025
  * Host name:     sv1-c724
  * Process ID:    1499602
  * Working dir.:  /home/lme/practical_course/practical_course_bachelor/nh3/vpt2/tight_opt
  ***********************************

================================================================================

----- Orbital basis set information -----
Your calculation utilizes the basis: cc-pVTZ 
       H, B-Ne : Obtained from the ccRepo (grant-hill.group.shef.ac.uk/ccrepo) Feb. 2017
                 T. H. Dunning, Jr., J. Chem. Phys. 90, 1007 (1989)
            He : Obtained from the ccRepo (grant-hill.group.shef.ac.uk/ccrepo) Feb. 2017
                 D. E. Woon, T. H. Dunning, Jr., J. Chem. Phys. 100, 2975 (1994)
  Li-Be, Na-Mg : Obtained from the ccRepo (grant-hill.group.shef.ac.uk/ccrepo) Feb. 2017
                 B. P. Prascher, D. E. Woon, K. A. Peterson, T. H. Dunning, Jr., A. K. Wilson, Theor. Chem. Acc. 128, 69 (2011)
         Al-Ar : Obtained from the ccRepo (grant-hill.group.shef.ac.uk/ccrepo) Feb. 2017
                 D. E. Woon, T. H. Dunning, Jr., J. Chem. Phys. 98, 1358 (1993)
            Ca : Obtained from the Peterson Research Group Website (tyr0.chem.wsu.edu/~kipeters) Feb. 2017
                 J. Koput, K. A. Peterson, J. Phys. Chem. 106, 9595 (2002)
         Sc-Zn : Obtained from the ccRepo (grant-hill.group.shef.ac.uk/ccrepo) Feb. 2017
                 N. B. Balabanov, K. A. Peterson, J. Chem. Phys. 123, 064107 (2005)
                 N. B. Balabanov, K. A. Peterson, J. Chem. Phys. 125, 074110 (2006)
         Ga-Kr : Obtained from the ccRepo (grant-hill.group.shef.ac.uk/ccrepo) Feb. 2017
                 A. K. Wilson, D. E. Woon, K. A. Peterson, T. H. Dunning, Jr., J. Chem. Phys. 110, 7667 (1999)
             Y : Obtained from the ccRepo (grant-hill.group.shef.ac.uk/ccrepo) Feb. 2017
                 K. A. Peterson, D. Figgen, M. Dolg, H. Stoll, J. Chem. Phys. 126, 124101 (2007)
        Ag, Au : Obtained from the Peterson Research Group Website (tyr0.chem.wsu.edu/~kipeters) Feb. 2017
                 K. A. Peterson, C. Puzzarini, Theor. Chem. Acc. 114, 283 (2005)

================================================================================
                                        WARNINGS
                       Please study these warnings very carefully!
================================================================================


WARNING: The frozen-core approximation for MP2-gradient calculations is turned on by default.

WARNING: The environment variable RSH_COMMAND is not set!
  ===> : All Displacements for the Numerical Hessian or Gradient calculation
         will be started on localhost

WARNING: Geometry Optimization
  ===> : Switching off AutoStart
         For restart on a previous wavefunction, please use MOREAD

WARNING: Post HF methods need fully converged wavefunctions
  ===> : Setting SCFConvForced true
         You can overwrite this default with %scf ConvForced false 


================================================================================
                                       INPUT FILE
================================================================================
NAME = nh3.inp
|  1> ! MP2 cc-pVTZ VERYTIGHTOPT NUMFREQ
|  2> 
|  3> %pal nprocs 4 end
|  4> 
|  5> 
|  6> * xyz 0 1
|  7> N     0.000000    0.000000    0.000000
|  8> H     0.940000    0.000000   -0.330000
|  9> H    -0.470000    0.810000   -0.330000
| 10> H    -0.470000   -0.810000   -0.330000
| 11> *
| 12> 
| 13>                          ****END OF INPUT****
================================================================================

                       *****************************
                       * Geometry Optimization Run *
                       *****************************

Geometry optimization settings:
Update method            Update   .... BFGS
Choice of coordinates    CoordSys .... (2022) Redundant Internals
Initial Hessian          InHess   .... Almloef's Model
Max. no of cycles        MaxIter  .... 50

Convergence Tolerances:
Energy Change            TolE     ....  2.0000e-07 Eh
Max. Gradient            TolMAXG  ....  3.0000e-05 Eh/bohr
RMS Gradient             TolRMSG  ....  8.0000e-06 Eh/bohr
Max. Displacement        TolMAXD  ....  2.0000e-04 bohr
RMS Displacement         TolRMSD  ....  1.0000e-04 bohr
Strict Convergence                .... False

------------------------------------------------------------------------------
                        ORCA OPTIMIZATION COORDINATE SETUP
------------------------------------------------------------------------------

The optimization will be done in redundant internal coordinates (2022)
Making redundant internal coordinates   ...  (2022 redundants) done
Evaluating the initial hessian          ...  (Almloef) done
Evaluating the coordinates              ...  done
Calculating the B-matrix                .... done
Calculating the G-matrix                .... done
The number of degrees of freedom        ....    7

    -----------------------------------------------------------------
                    Redundant Internal Coordinates


    -----------------------------------------------------------------
         Definition                    Initial Value    Approx d2E/dq
    -----------------------------------------------------------------
      1. B(H   1,N   0)                  0.9962         0.455138   
      2. B(H   2,N   0)                  0.9929         0.460720   
      3. B(H   3,N   0)                  0.9929         0.460720   
      4. A(H   1,N   0,H   3)          109.6660         0.308821   
      5. A(H   2,N   0,H   3)          109.3275         0.309428   
      6. A(H   1,N   0,H   2)          109.6660         0.308821   
      7. I(H   1,H   3,H   2,N   0)     54.4181         0.010000   
    -----------------------------------------------------------------

Number of atoms                         .... 4
Number of degrees of freedom            .... 7


         *************************************************************
         *                GEOMETRY OPTIMIZATION CYCLE   1            *
         *************************************************************
---------------------------------
CARTESIAN COORDINATES (ANGSTROEM)
---------------------------------
  N      0.000000    0.000000    0.000000
  H      0.940000    0.000000   -0.330000
  H     -0.470000    0.810000   -0.330000
  H     -0.470000   -0.810000   -0.330000

----------------------------
CARTESIAN COORDINATES (A.U.)
----------------------------
  NO LB      ZA    FRAG     MASS         X           Y           Z
   0 N     7.0000    0    14.007    0.000000    0.000000    0.000000
   1 H     1.0000    0     1.008    1.776343    0.000000   -0.623610
   2 H     1.0000    0     1.008   -0.888171    1.530678   -0.623610
   3 H     1.0000    0     1.008   -0.888171   -1.530678   -0.623610

--------------------------------
INTERNAL COORDINATES (ANGSTROEM)
--------------------------------
 N      0   0   0     0.000000000000     0.00000000     0.00000000
 H      1   0   0     0.996242942259     0.00000000     0.00000000
 H      1   2   0     0.992924971989   109.66599555     0.00000000
 H      1   2   3     0.992924971989   109.66599555   120.06357266

---------------------------
INTERNAL COORDINATES (A.U.)
---------------------------
 N      0   0   0     0.000000000000     0.00000000     0.00000000
 H      1   0   0     1.882626323721     0.00000000     0.00000000
 H      1   2   0     1.876356268591   109.66599555     0.00000000
 H      1   2   3     1.876356268591   109.66599555   120.06357266

---------------------
BASIS SET INFORMATION
---------------------
There are 2 groups of distinct atoms

 Group   1 Type N   : 18s5p2d1f contracted to 4s3p2d1f pattern {8811/311/11/1}
 Group   2 Type H   : 5s2p1d contracted to 3s2p1d pattern {311/11/1}

Atom   0N    basis set group =>   1
Atom   1H    basis set group =>   2
Atom   2H    basis set group =>   2
Atom   3H    basis set group =>   2


           ************************************************************
           *        Program running with 4 parallel MPI-processes     *
           *              working on a common directory               *
           ************************************************************
------------------------------------------------------------------------------
                             ORCA STARTUP CALCULATIONS
------------------------------------------------------------------------------
------------------------------------------------------------------------------
                   ___                                                        
                  /   \      - P O W E R E D   B Y -                         
                 /     \                                                     
                 |  |  |   _    _      __       _____    __    __             
                 |  |  |  | |  | |    /  \     |  _  \  |  |  /  |          
                  \  \/   | |  | |   /    \    | | | |  |  | /  /          
                 / \  \   | |__| |  /  /\  \   | |_| |  |  |/  /          
                |  |  |   |  __  | /  /__\  \  |    /   |      \           
                |  |  |   | |  | | |   __   |  |    \   |  |\   \          
                \     /   | |  | | |  |  |  |  | |\  \  |  | \   \       
                 \___/    |_|  |_| |__|  |__|  |_| \__\ |__|  \__/        
                                                                              
                      - O R C A' S   B I G   F R I E N D -                    
                                      &                                       
                       - I N T E G R A L  F E E D E R -                       
                                                                              
 v1 FN, 2020, v2 2021, v3 2022-2024                                           
------------------------------------------------------------------------------


----------------------
SHARK INTEGRAL PACKAGE
----------------------

Number of atoms                             ...      4
Number of basis functions                   ...     78
Number of shells                            ...     34
Maximum angular momentum                    ...      3
Integral batch strategy                     ... SHARK/LIBINT Hybrid
RI-J (if used) integral strategy            ... SPLIT-RIJ (Revised 2003 algorithm where possible)
Printlevel                                  ...      1
Contraction scheme used                     ... PARTIAL GENERAL contraction
Prescreening option                         ... SCHWARTZ
   Thresh                                   ... 1.000e-13
   Tcut                                     ... 1.000e-15
   Tpresel                                  ... 1.000e-15 
Coulomb Range Separation                    ... NOT USED
Exchange Range Separation                   ... NOT USED
Multipole approximations                    ... NOT USED
Finite Nucleus Model                        ... NOT USED
CABS basis                                  ... NOT available
Auxiliary Coulomb fitting basis             ... NOT available
Auxiliary J/K fitting basis                 ... NOT available
Auxiliary Correlation fitting basis         ... NOT available
Auxiliary 'external' fitting basis          ... NOT available

Checking pre-screening integrals            ... done (  0.0 sec) Dimension = 34
Save PGC pre-screening integrals            ... done (  0.0 sec) Dimension = 34
Calculate PGC overlap integrals             ... done (  0.0 sec) Dimension = 28
Calculating pre-screening integrals (ORCA)  ... done (  0.0 sec) Dimension = 28
Shell pair information
Shell pair cut-off parameter TPreSel        ...   1.0e-15
Total number of shell pairs                 ...       595
Shell pairs after pre-screening             ...       595
Total number of primitive shell pairs       ...       915
Primitive shell pairs kept                  ...       888
          la=0 lb=0:    190 shell pairs
          la=1 lb=0:    171 shell pairs
          la=1 lb=1:     45 shell pairs
          la=2 lb=0:     95 shell pairs
          la=2 lb=1:     45 shell pairs
          la=2 lb=2:     15 shell pairs
          la=3 lb=0:     19 shell pairs
          la=3 lb=1:      9 shell pairs
          la=3 lb=2:      5 shell pairs
          la=3 lb=3:      1 shell pairs

Checking whether 4 symmetric matrices of dimension 78 fit in memory
:Max Core in MB      =   4096.00
 MB in use           =      2.53
 MB left             =   4093.47
 MB needed           =      0.09
 Data fit in memory  = YES
Calculating Nuclear repulsion               ... done (  0.0 sec) ENN=     12.156986789226 Eh

Diagonalization of the overlap matrix:
Smallest eigenvalue                        ... 1.778e-03
Time for diagonalization                   ...    0.001 sec
Threshold for overlap eigenvalues          ... 1.000e-07
Number of eigenvalues below threshold      ... 0
Time for construction of square roots      ...    0.000 sec
Total time needed                          ...    0.001 sec

-------------------
DFT GRID GENERATION
-------------------

General Integration Accuracy     IntAcc      ... 4.388
Radial Grid Type                 RadialGrid  ... OptM3 with GC (2021)
Angular Grid (max. ang.)         AngularGrid ... 4 (Lebedev-302)
Angular grid pruning method      GridPruning ... 4 (adaptive)
Weight generation scheme         WeightScheme... mBecke (2022)
Basis function cutoff            BFCut       ... 1.0000e-13
Integration weight cutoff        WCut        ... 1.0000e-14
Partially contracted basis set               ... off
Rotationally invariant grid construction     ... off
Angular grids for H and He will be reduced by one unit

Total number of grid points                  ...    16018
Total number of batches                      ...      252
Average number of points per batch           ...       63
Average number of grid points per atom       ...     4004

---------------------
SHARK GRID GENERATION
---------------------

General Integration Accuracy     IntAcc      ... 4.388
Radial Grid Type                 RadialGrid  ... OptM3 with GC (2021)
Angular Grid (max. ang.)         AngularGrid ... 4 (Lebedev-302)
Angular grid pruning method      GridPruning ... 4 (adaptive)
Weight generation scheme         WeightScheme... mBecke (2022)
Basis function cutoff            BFCut       ... 1.0000e-13
Integration weight cutoff        WCut        ... 1.0000e-14
Partially contracted basis set               ... off
Rotationally invariant grid construction     ... off
Angular grids for H and He will be reduced by one unit
Steep s-basis detected: some atoms will have their radial
                        grid points doubled.

Total number of grid points                  ...    22253
Total number of batches                      ...      350
Average number of points per batch           ...       63
Average number of grid points per atom       ...     5563
Grids setup in   0.1 sec
Initializing property integral containers    ... done (  0.0 sec)

SHARK setup successfully completed in   0.2 seconds

Maximum memory used throughout the entire STARTUP-calculation: 16.7 MB


           ************************************************************
           *        Program running with 4 parallel MPI-processes     *
           *              working on a common directory               *
           ************************************************************
-------------------------------------------------------------------------------
                                 ORCA GUESS
                   Start orbitals & Density for SCF / CASSCF
-------------------------------------------------------------------------------

------------
SCF SETTINGS
------------
Hamiltonian:
 Ab initio Hamiltonian  Method          .... Hartree-Fock(GTOs)


General Settings:
 Integral files         IntName         .... nh3
 Hartree-Fock type      HFTyp           .... RHF
 Total Charge           Charge          ....    0
 Multiplicity           Mult            ....    1
 Number of Electrons    NEL             ....   10
 Basis Dimension        Dim             ....   72
 Nuclear Repulsion      ENuc            ....     12.1569867892 Eh

Convergence Acceleration:
 AO-DIIS                CNVDIIS         .... on
   Start iteration      DIISMaxIt       ....    12
   Startup error        DIISStart       ....  0.200000
   # of expansion vecs  DIISMaxEq       ....     5
   Bias factor          DIISBfac        ....   1.050
   Max. coefficient     DIISMaxC        ....  10.000
 MO-DIIS                CNVKDIIS        .... off
 Trust-Rad. Augm. Hess. CNVTRAH         .... auto
   Auto Start mean grad. ratio tolernc. ....  1.125000
   Auto Start start iteration           ....    50
   Auto Start num. interpolation iter.  ....    10
   Max. Number of Micro iterations      ....    24
   Max. Number of Macro iterations      .... Maxiter - #DIIS iter
   Number of Davidson start vectors     ....     2
   Converg. threshold    (grad. norm)   ....   2.000e-07
   Grad. Scal. Fac. for Micro threshold ....   0.100
   Minimum threshold for Micro iter.    ....   1.000e-02
   NR start threshold (gradient norm)   ....   1.000e-04
   Initial trust radius                 ....   0.400
   Minimum AH scaling param. (alpha)    ....   1.000
   Maximum AH scaling param. (alpha)    .... 1000.000
   Quad. conv. algorithm                .... NR
   White noise on init. David. guess    .... on
   Maximum white noise                  ....   0.010
   Pseudo random numbers                .... off
   Inactive MOs                         .... canonical
   Orbital update algorithm             .... Taylor
   Preconditioner                       .... Diag
   Full preconditioner red. dimension   ....   250
 SOSCF                 CNVSOSCF           .... on
   Start iteration     SOSCFMaxIt         ....   150
   Startup grad/error  SOSCFStart         ....  0.003300
   Hessian update      SOSCFHessUp        .... L-BFGS
   Autom. constraints  SOSCFAutoConstrain .... off
 Level Shifting         CNVShift        .... on
   Level shift para.    LevelShift      ....    0.2500
   Turn off err/grad.   ShiftErr        ....    0.0010
 Zerner damping         CNVZerner       .... off
 Static damping         CNVDamp         .... on
   Fraction old density DampFac         ....    0.7000
   Max. Damping (<1)    DampMax         ....    0.9800
   Min. Damping (>=0)   DampMin         ....    0.0000
   Turn off err/grad.   DampErr         ....    0.1000

SCF Procedure:
 Maximum # iterations   MaxIter         ....   125
 SCF integral mode      SCFMode         .... Direct
   Integral package                     .... SHARK and LIBINT hybrid scheme
 Reset frequency        DirectResetFreq ....    20
 Integral Threshold     Thresh          ....  1.000e-13 Eh
 Primitive CutOff       TCut            ....  1.000e-15 Eh

Convergence Tolerance:
 Convergence Check Mode ConvCheckMode   .... Total+1el-Energy
 Convergence forced     ConvForced      .... 1
 Energy Change          TolE            ....  1.000e-10 Eh
 1-El. energy change                    ....  1.000e-07 Eh
 Orbital Gradient       TolG            ....  2.000e-07
 Orbital Rotation angle TolX            ....  2.000e-07
 DIIS Error             TolErr          ....  1.000e-09

------------------------------
INITIAL GUESS: MODEL POTENTIAL
------------------------------
Loading Hartree-Fock densities                     ... done
Calculating cut-offs                               ... done
Initializing the effective Hamiltonian             ... done
Setting up the integral package (SHARK)            ... done
Starting the Coulomb interaction                   ... done (   0.0 sec)
Making the grid                                    ... done (   0.0 sec)
Mapping shells                                     ... done
Starting the XC term evaluation                    ... done (   0.0 sec)
Transforming the Hamiltonian                       ... done (   0.0 sec)
Diagonalizing the Hamiltonian                      ... done (   0.0 sec)
Back transforming the eigenvectors                 ... done (   0.0 sec)
Now organizing SCF variables                       ... done
                      ------------------
                      INITIAL GUESS DONE (   0.0 sec)
                      ------------------
             **** ENERGY FILE WAS UPDATED (nh3.en.tmp) ****
Finished Guess after   0.1 sec
Maximum memory used throughout the entire GUESS-calculation: 6.2 MB


           ************************************************************
           *        Program running with 4 parallel MPI-processes     *
           *              working on a common directory               *
           ************************************************************

-------------------------------------------------------------------------------------------
                                      ORCA LEAN-SCF
                              memory conserving SCF solver
-------------------------------------------------------------------------------------------

----------------------------------------D-I-I-S--------------------------------------------
Iteration    Energy (Eh)           Delta-E    RMSDP     MaxDP     DIISErr   Damp  Time(sec)
-------------------------------------------------------------------------------------------
               ***  Starting incremental Fock matrix formation  ***
    1    -56.0707899744462495     0.00e+00  4.70e-03  5.48e-02  4.11e-01  0.700   0.1
    2    -56.1280748063716359    -5.73e-02  3.51e-03  4.36e-02  2.47e-01  0.700   0.1
                               ***Turning on AO-DIIS***
    3    -56.1593433900449597    -3.13e-02  1.60e-03  1.65e-02  1.34e-01  0.700   0.0
    4    -56.1781538711578108    -1.88e-02  9.79e-04  9.75e-03  8.83e-02  0.700   0.0
    5    -56.1905162435694123    -1.24e-02  2.25e-03  2.30e-02  6.14e-02  0.000   0.0
                              *** Initializing SOSCF ***
---------------------------------------S-O-S-C-F--------------------------------------
Iteration    Energy (Eh)           Delta-E    RMSDP     MaxDP     MaxGrad    Time(sec)
--------------------------------------------------------------------------------------
    6    -56.2180051232841365    -2.75e-02  2.75e-04  2.28e-03  3.04e-03     0.1
               *** Restarting incremental Fock matrix formation ***
    7    -56.2180341891174393    -2.91e-05  2.29e-04  2.23e-03  6.97e-04     0.0
    8    -56.2180419661395305    -7.78e-06  1.89e-04  1.88e-03  3.24e-04     0.0
    9    -56.2180436635560810    -1.70e-06  1.26e-05  1.62e-04  1.15e-04     0.0
   10    -56.2180437351846010    -7.16e-08  3.74e-06  3.13e-05  2.79e-05     0.0
   11    -56.2180437426821626    -7.50e-09  2.13e-06  1.57e-05  7.36e-06     0.0
   12    -56.2180437434737073    -7.92e-10  6.43e-07  5.45e-06  2.69e-06     0.0
   13    -56.2180437435322418    -5.85e-11  8.04e-08  1.20e-06  6.52e-07     0.0
                 **** Energy Check signals convergence ****

               *****************************************************
               *                     SUCCESS                       *
               *           SCF CONVERGED AFTER  13 CYCLES          *
               *****************************************************

             **** ENERGY FILE WAS UPDATED (nh3.en.tmp) ****

----------------
TOTAL SCF ENERGY
----------------

Total Energy       :        -56.21804374353402 Eh           -1529.77074 eV

Components:
Nuclear Repulsion  :         12.15698678922634 Eh             330.80843 eV
Electronic Energy  :        -68.37503053276036 Eh           -1860.57917 eV
One Electron Energy:       -100.04044057313530 Eh           -2722.23878 eV
Two Electron Energy:         31.66541004037494 Eh             861.65961 eV

Virial components:
Potential Energy   :       -112.45615674307184 Eh           -3060.08760 eV
Kinetic Energy     :         56.23811299953783 Eh            1530.31685 eV
Virial Ratio       :          1.99964313781289

---------------
SCF CONVERGENCE
---------------

  Last Energy change         ...    5.8535e-11  Tolerance :   1.0000e-10
  Last MAX-Density change    ...    1.2029e-06  Tolerance :   1.0000e-09
  Last RMS-Density change    ...    8.0351e-08  Tolerance :   1.0000e-10
  Last DIIS Error            ...    3.0367e-03  Tolerance :   1.0000e-09
  Last Orbital Gradient      ...    6.5242e-07  Tolerance :   2.0000e-07
  Last Orbital Rotation      ...    6.7524e-07  Tolerance :   2.0000e-07


----------------
ORBITAL ENERGIES
----------------

  NO   OCC          E(Eh)            E(eV) 
   0   2.0000     -15.524749      -422.4499 
   1   2.0000      -1.141481       -31.0613 
   2   2.0000      -0.635131       -17.2828 
   3   2.0000      -0.635118       -17.2824 
   4   2.0000      -0.418331       -11.3834 
   5   0.0000       0.139962         3.8086 
   6   0.0000       0.217344         5.9142 
   7   0.0000       0.217682         5.9234 
   8   0.0000       0.482572        13.1315 
   9   0.0000       0.483060        13.1447 
  10   0.0000       0.607510        16.5312 
  11   0.0000       0.635017        17.2797 
  12   0.0000       0.712374        19.3847 
  13   0.0000       0.713536        19.4163 
  14   0.0000       0.767715        20.8906 
  15   0.0000       0.768307        20.9067 
*Only the first 10 virtual orbitals were printed.

                    ********************************
                    * MULLIKEN POPULATION ANALYSIS *
                    ********************************

-----------------------
MULLIKEN ATOMIC CHARGES
-----------------------
   0 N :   -0.509171
   1 H :    0.169922
   2 H :    0.169625
   3 H :    0.169625
Sum of atomic charges:    0.0000000

--------------------------------
MULLIKEN REDUCED ORBITAL CHARGES
--------------------------------
  0 N s       :     3.536515  s :     3.536515
      pz      :     1.792292  p :     3.945994
      px      :     1.076311
      py      :     1.077390
      dz2     :     0.001702  d :     0.025347
      dxz     :     0.006894
      dyz     :     0.006879
      dx2y2   :     0.004919
      dxy     :     0.004953
      f0      :     0.000569  f :     0.001316
      f+1     :     0.000134
      f-1     :     0.000133
      f+2     :    -0.000035
      f-2     :    -0.000037
      f+3     :     0.000552
      f-3     :     0.000000

  1 H s       :     0.771506  s :     0.771506
      pz      :     0.026049  p :     0.054193
      px      :     0.014989
      py      :     0.013156
      dz2     :     0.000584  d :     0.004379
      dxz     :     0.001941
      dyz     :     0.000069
      dx2y2   :     0.000903
      dxy     :     0.000882

  2 H s       :     0.771541  s :     0.771541
      pz      :     0.026247  p :     0.054424
      px      :     0.013755
      py      :     0.014422
      dz2     :     0.000592  d :     0.004411
      dxz     :     0.000544
      dyz     :     0.001478
      dx2y2   :     0.000894
      dxy     :     0.000902

  3 H s       :     0.771541  s :     0.771541
      pz      :     0.026247  p :     0.054424
      px      :     0.013755
      py      :     0.014422
      dz2     :     0.000592  d :     0.004411
      dxz     :     0.000544
      dyz     :     0.001478
      dx2y2   :     0.000894
      dxy     :     0.000902



                     *******************************
                     * LOEWDIN POPULATION ANALYSIS *
                     *******************************

----------------------
LOEWDIN ATOMIC CHARGES
----------------------
   0 N :    0.353120
   1 H :   -0.115301
   2 H :   -0.118909
   3 H :   -0.118909

-------------------------------
LOEWDIN REDUCED ORBITAL CHARGES
-------------------------------
  0 N s       :     2.861767  s :     2.861767
      pz      :     1.501095  p :     3.682365
      px      :     1.089794
      py      :     1.091476
      dz2     :     0.006774  d :     0.095231
      dxz     :     0.012932
      dyz     :     0.012952
      dx2y2   :     0.031214
      dxy     :     0.031359
      f0      :     0.000504  f :     0.007516
      f+1     :     0.000035
      f-1     :     0.000033
      f+2     :     0.002240
      f-2     :     0.002263
      f+3     :     0.002440
      f-3     :     0.000000

  1 H s       :     0.779521  s :     0.779521
      pz      :     0.117499  p :     0.273866
      px      :     0.101844
      py      :     0.054523
      dz2     :     0.008582  d :     0.061914
      dxz     :     0.023126
      dyz     :     0.001292
      dx2y2   :     0.012452
      dxy     :     0.016462

  2 H s       :     0.779812  s :     0.779812
      pz      :     0.118661  p :     0.276430
      px      :     0.067113
      py      :     0.090656
      dz2     :     0.008731  d :     0.062667
      dxz     :     0.006876
      dyz     :     0.017806
      dx2y2   :     0.015677
      dxy     :     0.013577

  3 H s       :     0.779812  s :     0.779812
      pz      :     0.118661  p :     0.276430
      px      :     0.067113
      py      :     0.090656
      dz2     :     0.008731  d :     0.062667
      dxz     :     0.006876
      dyz     :     0.017806
      dx2y2   :     0.015677
      dxy     :     0.013577



                      *****************************
                      * MAYER POPULATION ANALYSIS *
                      *****************************

  NA   - Mulliken gross atomic population
  ZA   - Total nuclear charge
  QA   - Mulliken gross atomic charge
  VA   - Mayer's total valence
  BVA  - Mayer's bonded valence
  FA   - Mayer's free valence

  ATOM       NA         ZA         QA         VA         BVA        FA
  0 N      7.5092     7.0000    -0.5092     2.9457     2.9457     0.0000
  1 H      0.8301     1.0000     0.1699     0.9967     0.9967    -0.0000
  2 H      0.8304     1.0000     0.1696     0.9969     0.9969    -0.0000
  3 H      0.8304     1.0000     0.1696     0.9969     0.9969     0.0000

  Mayer bond orders larger than 0.100000
B(  0-N ,  1-H ) :   0.9816 B(  0-N ,  2-H ) :   0.9820 B(  0-N ,  3-H ) :   0.9820 


-------
TIMINGS
-------

Total SCF time: 0 days 0 hours 0 min 0 sec 

Total time                  ....       0.751 sec
Sum of individual times     ....       0.697 sec  ( 92.9%)

SCF preparation             ....       0.060 sec  (  8.0%)
Fock matrix formation       ....       0.560 sec  ( 74.6%)
  Startup                   ....       0.001 sec  (  0.3% of F)
  Coulomb+Exchange Fock     ....       0.593 sec  (105.9% of F)
Diagonalization             ....       0.000 sec  (  0.0%)
Density matrix formation    ....       0.010 sec  (  1.3%)
Total Energy calculation    ....       0.006 sec  (  0.7%)
Population analysis         ....       0.004 sec  (  0.5%)
Orbital Transformation      ....       0.006 sec  (  0.8%)
Orbital Orthonormalization  ....       0.000 sec  (  0.0%)
DIIS solution               ....       0.033 sec  (  4.4%)
SOSCF solution              ....       0.018 sec  (  2.5%)
Finished LeanSCF after   0.8 sec

Maximum memory used throughout the entire LEANSCF-calculation: 10.4 MB


           ************************************************************
           *        Program running with 4 parallel MPI-processes     *
           *              working on a common directory               *
           ************************************************************

------------------------------------------------------------------------------
                                ORCA  MP2 
------------------------------------------------------------------------------

NOTE: Switching SHARK to Segmented Contraction for MP2
      If that is not desired please turn off the PGCFlag in the input (%shark PGCFlag 0 end)
      Number of basis functions in BAS before restore: 78
      Number of basis functions in BAS after restore : 72
Freezing NCore=2 chemical core electrons
MP2 will be done in the AO integral direct mode
The Q1-step will be done using symmetric double matrices
Dimension of the basis                    ...   72
Memory devoted for MP2                    ... 4096 MB   
Memory needed for all in one shot         ...    2 MB
Number of MOs that can be treated together... 2836      
MP2 density construction                  ... relaxed
The MP2 gradient is requested => amplitudes will be stored on disk
Total number of MOs              ...    4
Number of MOs treated per batch  ...    1 
Number of batches necessary      ...    1 
OPERATORS   0/  0 PASS   3
OPERATORS   0/  0 PASS   0
OPERATORS   0/  0 PASS   2
OPERATORS   0/  0 PASS   1
-----------------------------------------------
 MP2 CORRELATION ENERGY   :     -0.233856131 Eh
-----------------------------------------------


---------------------
MP2 DENSITY FORMATION
---------------------

Completing the external part of the density      ... done
Storing the unrelaxed density                    ... done

Calculating G(D)                                 ... done
Completing the Lagrangian                        ... done
Solving the Z-vector equations                   ... 
-------------------
SHARK CP-SCF DRIVER
-------------------

Dimension of the orbital basis          ...     72
Dimension of the CPSCF-problem          ...    335
Number of operators                     ...      1
Max. number of iterations               ...    128
Convergence Tolerance                   ... 3.0e-06
Number of perturbations                 ...      1
Perturbation type                       ... REAL

----------------------------
POPLE LINEAR EQUATION SOLVER
----------------------------

  ITERATION   0:   ||err||_max =   3.5177e-02 (   0.1 sec)
  ITERATION   1:   ||err||_max =   7.4351e-03 (   0.1 sec)
  ITERATION   2:   ||err||_max =   1.2860e-03 (   0.1 sec)
  ITERATION   3:   ||err||_max =   3.1505e-04 (   0.1 sec)
  ITERATION   4:   ||err||_max =   7.8444e-05 (   0.1 sec)
  ITERATION   5:   ||err||_max =   1.3209e-05 (   0.1 sec)
  ITERATION   6:   ||err||_max =   1.7604e-06 (   0.1 sec)
                                                 ... done
Finalizing the relaxed density                   ... done
Transforming P to the AO basis                   ... done
Storing the relaxed density                      ... done

------------------------------------
ENERGY WEIGHTED DENSITY FINALIZATION
------------------------------------

Gathering the parts of the W-matrix              ...                                                      done
Forming the Z-density                            ... done
Transforming Z to the AO basis                   ... done
Calculating G(Z)                                 ... done
Finalizing the W-matrix                          ...                                                      done
Transforming W to the AO basis and storing       ... done

                *********************************************
                * UNRELAXED MP2 DENSITY POPULATION ANALYSIS *
                *********************************************

------------------------------------------------------------------------------
                           ORCA POPULATION ANALYSIS
------------------------------------------------------------------------------
Input electron density              ... nh3.pmp2ur
BaseName (.gbw .S,...)              ... nh3

                    ********************************
                    * MULLIKEN POPULATION ANALYSIS *
                    ********************************

-----------------------
MULLIKEN ATOMIC CHARGES
-----------------------
   0 N :   -0.505668
   1 H :    0.168754
   2 H :    0.168457
   3 H :    0.168457
Sum of atomic charges:   -0.0000000

--------------------------------
MULLIKEN REDUCED ORBITAL CHARGES
--------------------------------
  0 N s       :     3.530749  s :     3.530749
      pz      :     1.777212  p :     3.919703
      px      :     1.070712
      py      :     1.071779
      dz2     :     0.007669  d :     0.051081
      dxz     :     0.012185
      dyz     :     0.012170
      dx2y2   :     0.009511
      dxy     :     0.009547
      f0      :     0.000960  f :     0.004135
      f+1     :     0.000537
      f-1     :     0.000536
      f+2     :     0.000377
      f-2     :     0.000377
      f+3     :     0.000930
      f-3     :     0.000419
  1 H s       :     0.769435  s :     0.769435
      pz      :     0.027412  p :     0.056856
      px      :     0.014861
      py      :     0.014583
      dz2     :     0.000702  d :     0.004955
      dxz     :     0.002044
      dyz     :     0.000180
      dx2y2   :     0.001011
      dxy     :     0.001019
  2 H s       :     0.769454  s :     0.769454
      pz      :     0.027608  p :     0.057098
      px      :     0.014794
      py      :     0.014695
      dz2     :     0.000710  d :     0.004991
      dxz     :     0.000654
      dyz     :     0.001584
      dx2y2   :     0.001025
      dxy     :     0.001019
  3 H s       :     0.769454  s :     0.769454
      pz      :     0.027608  p :     0.057098
      px      :     0.014794
      py      :     0.014695
      dz2     :     0.000710  d :     0.004991
      dxz     :     0.000654
      dyz     :     0.001584
      dx2y2   :     0.001025
      dxy     :     0.001019


                     *******************************
                     * LOEWDIN POPULATION ANALYSIS *
                     *******************************

----------------------
LOEWDIN ATOMIC CHARGES
----------------------
   0 N :    0.354470
   1 H :   -0.115778
   2 H :   -0.119346
   3 H :   -0.119346

-------------------------------
LOEWDIN REDUCED ORBITAL CHARGES
-------------------------------
  0 N s       :     2.858770  s :     2.858770
      pz      :     1.489739  p :     3.655275
      px      :     1.081934
      py      :     1.083602
      dz2     :     0.012613  d :     0.120692
      dxz     :     0.018371
      dyz     :     0.018389
      dx2y2   :     0.035581
      dxy     :     0.035737
      f0      :     0.001001  f :     0.010793
      f+1     :     0.000474
      f-1     :     0.000472
      f+2     :     0.002691
      f-2     :     0.002716
      f+3     :     0.003001
      f-3     :     0.000437
  1 H s       :     0.774290  s :     0.774290
      pz      :     0.118305  p :     0.278131
      px      :     0.104253
      py      :     0.055573
      dz2     :     0.008792  d :     0.063358
      dxz     :     0.023388
      dyz     :     0.001489
      dx2y2   :     0.013122
      dxy     :     0.016566
  2 H s       :     0.774568  s :     0.774568
      pz      :     0.119448  p :     0.280667
      px      :     0.068499
      py      :     0.092719
      dz2     :     0.008941  d :     0.064111
      dxz     :     0.007091
      dyz     :     0.018052
      dx2y2   :     0.015919
      dxy     :     0.014108
  3 H s       :     0.774568  s :     0.774568
      pz      :     0.119448  p :     0.280667
      px      :     0.068499
      py      :     0.092719
      dz2     :     0.008941  d :     0.064111
      dxz     :     0.007091
      dyz     :     0.018052
      dx2y2   :     0.015919
      dxy     :     0.014108


                      *****************************
                      * MAYER POPULATION ANALYSIS *
                      *****************************

  NA   - Mulliken gross atomic population
  ZA   - Total nuclear charge
  QA   - Mulliken gross atomic charge
  VA   - Mayer's total valence
  BVA  - Mayer's bonded valence
  FA   - Mayer's free valence

  ATOM       NA         ZA         QA         VA         BVA        FA
  0 N      7.5057     7.0000    -0.5057     3.1500     2.8172     0.3329
  1 H      0.8312     1.0000     0.1688     1.0067     0.9521     0.0546
  2 H      0.8315     1.0000     0.1685     1.0070     0.9525     0.0544
  3 H      0.8315     1.0000     0.1685     1.0070     0.9525     0.0544

  Mayer bond orders larger than 0.100000
B(  0-N ,  1-H ) :   0.9386 B(  0-N ,  2-H ) :   0.9393 B(  0-N ,  3-H ) :   0.9393 



                *******************************************
                * RELAXED MP2 DENSITY POPULATION ANALYSIS *
                *******************************************

------------------------------------------------------------------------------
                           ORCA POPULATION ANALYSIS
------------------------------------------------------------------------------
Input electron density              ... nh3.pmp2re
BaseName (.gbw .S,...)              ... nh3

                    ********************************
                    * MULLIKEN POPULATION ANALYSIS *
                    ********************************

-----------------------
MULLIKEN ATOMIC CHARGES
-----------------------
   0 N :   -0.547926
   1 H :    0.182871
   2 H :    0.182528
   3 H :    0.182528
Sum of atomic charges:   -0.0000000

--------------------------------
MULLIKEN REDUCED ORBITAL CHARGES
--------------------------------
  0 N s       :     3.538119  s :     3.538119
      pz      :     1.784562  p :     3.956623
      px      :     1.085520
      py      :     1.086541
      dz2     :     0.008152  d :     0.049042
      dxz     :     0.011820
      dyz     :     0.011807
      dx2y2   :     0.008616
      dxy     :     0.008648
      f0      :     0.000953  f :     0.004142
      f+1     :     0.000547
      f-1     :     0.000545
      f+2     :     0.000387
      f-2     :     0.000386
      f+3     :     0.000905
      f-3     :     0.000419
  1 H s       :     0.754538  s :     0.754538
      pz      :     0.029566  p :     0.057852
      px      :     0.012094
      py      :     0.016193
      dz2     :     0.000649  d :     0.004739
      dxz     :     0.001935
      dyz     :     0.000189
      dx2y2   :     0.000912
      dxy     :     0.001053
  2 H s       :     0.754578  s :     0.754578
      pz      :     0.029745  p :     0.058119
      px      :     0.015304
      py      :     0.013070
      dz2     :     0.000657  d :     0.004775
      dxz     :     0.000633
      dyz     :     0.001505
      dx2y2   :     0.001027
      dxy     :     0.000953
  3 H s       :     0.754578  s :     0.754578
      pz      :     0.029745  p :     0.058119
      px      :     0.015304
      py      :     0.013070
      dz2     :     0.000657  d :     0.004775
      dxz     :     0.000633
      dyz     :     0.001505
      dx2y2   :     0.001027
      dxy     :     0.000953


                     *******************************
                     * LOEWDIN POPULATION ANALYSIS *
                     *******************************

----------------------
LOEWDIN ATOMIC CHARGES
----------------------
   0 N :    0.347858
   1 H :   -0.113545
   2 H :   -0.117156
   3 H :   -0.117156

-------------------------------
LOEWDIN REDUCED ORBITAL CHARGES
-------------------------------
  0 N s       :     2.859957  s :     2.859957
      pz      :     1.487163  p :     3.667038
      px      :     1.089119
      py      :     1.090756
      dz2     :     0.011799  d :     0.114473
      dxz     :     0.017829
      dyz     :     0.017848
      dx2y2   :     0.033423
      dxy     :     0.033574
      f0      :     0.000990  f :     0.010674
      f+1     :     0.000477
      f-1     :     0.000475
      f+2     :     0.002662
      f-2     :     0.002687
      f+3     :     0.002946
      f-3     :     0.000437
  1 H s       :     0.769365  s :     0.769365
      pz      :     0.120840  p :     0.280861
      px      :     0.103196
      py      :     0.056826
      dz2     :     0.008598  d :     0.063319
      dxz     :     0.023236
      dyz     :     0.001538
      dx2y2   :     0.013351
      dxy     :     0.016596
  2 H s       :     0.769700  s :     0.769700
      pz      :     0.121973  p :     0.283389
      px      :     0.069164
      py      :     0.092252
      dz2     :     0.008741  d :     0.064067
      dxz     :     0.007090
      dyz     :     0.017952
      dx2y2   :     0.015997
      dxy     :     0.014287
  3 H s       :     0.769700  s :     0.769700
      pz      :     0.121973  p :     0.283389
      px      :     0.069164
      py      :     0.092252
      dz2     :     0.008741  d :     0.064067
      dxz     :     0.007090
      dyz     :     0.017952
      dx2y2   :     0.015997
      dxy     :     0.014287


                      *****************************
                      * MAYER POPULATION ANALYSIS *
                      *****************************

  NA   - Mulliken gross atomic population
  ZA   - Total nuclear charge
  QA   - Mulliken gross atomic charge
  VA   - Mayer's total valence
  BVA  - Mayer's bonded valence
  FA   - Mayer's free valence

  ATOM       NA         ZA         QA         VA         BVA        FA
  0 N      7.5479     7.0000    -0.5479     3.1420     2.8103     0.3317
  1 H      0.8171     1.0000     0.1829     1.0060     0.9520     0.0540
  2 H      0.8175     1.0000     0.1825     1.0063     0.9524     0.0539
  3 H      0.8175     1.0000     0.1825     1.0063     0.9524     0.0539

  Mayer bond orders larger than 0.100000
B(  0-N ,  1-H ) :   0.9363 B(  0-N ,  2-H ) :   0.9370 B(  0-N ,  3-H ) :   0.9370 



----------------------------------
MP2 DERIVATIVE INTEGRAL GENERATION
----------------------------------

Input SCF Electron Density              ... nh3.scfp
Input Correlated Electron Density       ... nh3.pmp2re
Input Energy Weighted Density           ... nh3.wmp2.tmp
Input Wavefunction Amplitudes           ... nh3.mp2tsaa.tmp

Nuclear repulsion gradient              ... done (  0.0 sec)
HCore & Overlap gradient  (SHARK)       ... done (  0.0 sec)
Analytic two-electron gradient terms    ... 
  Batch handling in the gradient evaluation:
  General contraction                   ... not used
  Memory available                      ... 4092.1 MB
  Memory per occupied orbital in Q2     ...    0.2 MB
  Memory per occupied orbital in Q3     ...    0.0 MB
  Total memory requirement per |i>      ...    0.2 MB
  Number of orbitals treated per batch  ...      4
  Number of batches to be done          ...      1
done (  0.3 sec)

---------------------------------------
MP2 TOTAL ENERGY:      -56.451899875 Eh
---------------------------------------

The final MP2 gradient
  0:  -0.00253036   0.00000000  -0.01988283
  1:  -0.00807090  -0.00000000   0.00603540
  2:   0.00530063  -0.01005655   0.00692372
  3:   0.00530063   0.01005655   0.00692372

-----------------------------------
NORM OF THE MP2 GRADIENT:  0.029285
-----------------------------------

Maximum memory used throughout the entire MP2-calculation: 31.5 MB

-------------------------   --------------------
FINAL SINGLE POINT ENERGY       -56.451899874579
-------------------------   --------------------

------------------------------------------------------------------------------
                         ORCA GEOMETRY RELAXATION STEP
------------------------------------------------------------------------------

Reading the OPT-File                    .... done
Getting information on internals        .... done
Copying old internal coords+grads       .... done
Making the new internal coordinates     .... (2022 redundants) done
Validating the new internal coordinates .... (2022 redundants) done
Calculating the B-matrix                .... done
Calculating the G,G- and P matrices     .... done
Transforming gradient to internals      .... done
Projecting the internal gradient        .... done
Number of atoms                         ....   4
Number of internal coordinates          ....   7
Current Energy                          ....   -56.451899875 Eh
Current gradient norm                   ....     0.029285364 Eh/bohr
Maximum allowed component of the step   ....  0.300
Current trust radius                    ....  0.300
Evaluating the initial hessian          ....  (Almloef) done
Projecting the Hessian                  .... done
Forming the augmented Hessian           .... done
Diagonalizing the augmented Hessian     .... done
Last element of RFO vector              ....  0.997762230
Lowest eigenvalues of augmented Hessian:
 -0.001195305  0.101977352  0.308820929  0.309369221  0.455316839
Length of the computed step             ....  0.067011999
The final length of the internal step   ....  0.067011999
Converting the step to Cartesian space:
 Initial RMS(Int)=    0.0253281550
Transforming coordinates:
 Iter   0:  RMS(Cart)=    0.0118282103 RMS(Int)=    0.0252649459
done
Storing new coordinates                 .... done

                                .--------------------.
          ----------------------|Geometry convergence|-------------------------
          Item                value                   Tolerance       Converged
          ---------------------------------------------------------------------
          RMS gradient        0.0081049390            0.0000080000      NO
          MAX gradient        0.0130139988            0.0000300000      NO
          RMS step            0.0253281550            0.0001000000      NO
          MAX step            0.0410310079            0.0002000000      NO
          -------------------------------------------------------------------------
          ........................................................
          Max(Bonds)      0.0149      Max(Angles)    0.97
          Max(Dihed)        0.00      Max(Improp)    2.35
          ---------------------------------------------------------------------

The optimization has not yet converged - more geometry cycles are needed


    ---------------------------------------------------------------------------
                         Redundant Internal Coordinates
                            (Angstroem and degrees)

        Definition                    Value    dE/dq     Step     New-Value
    ----------------------------------------------------------------------------
     1. B(H   1,N   0)                0.9962 -0.009614  0.0111    1.0074   
     2. B(H   2,N   0)                0.9929 -0.013014  0.0149    1.0078   
     3. B(H   3,N   0)                0.9929 -0.013014  0.0149    1.0078   
     4. A(H   1,N   0,H   3)          109.67  0.001466   -0.97    108.70   
     5. A(H   2,N   0,H   3)          109.33  0.002555   -0.82    108.51   
     6. A(H   1,N   0,H   2)          109.67  0.001466   -0.97    108.70   
     7. I(H   1,H   3,H   2,N   0)     54.42 -0.004224    2.35     56.77   
    ----------------------------------------------------------------------------

Geometry step timings:
Preparation and reading OPT file:      0.000 s ( 4.223 %)
Internal coordinates            :      0.000 s ( 5.374 %)
B/P matrices and projection     :      0.000 s (17.083 %)
Hessian update/contruction      :      0.000 s (15.547 %)
Making the step                 :      0.000 s (15.931 %)
Converting the step to Cartesian:      0.000 s ( 7.678 %)
Storing new data                :      0.000 s ( 5.758 %)
Checking convergence            :      0.000 s ( 8.445 %)
Final printing                  :      0.000 s (19.578 %)
Total time                      :      0.001 s

Time for energy+gradient        :      2.789 s
Time for complete geometry iter :      2.955 s

         *************************************************************
         *                GEOMETRY OPTIMIZATION CYCLE   2            *
         *************************************************************
---------------------------------
CARTESIAN COORDINATES (ANGSTROEM)
---------------------------------
  N      0.000638   -0.000000    0.014809
  H      0.945425    0.000000   -0.334787
  H     -0.473031    0.817920   -0.335011
  H     -0.473031   -0.817920   -0.335011

----------------------------
CARTESIAN COORDINATES (A.U.)
----------------------------
  NO LB      ZA    FRAG     MASS         X           Y           Z
   0 N     7.0000    0    14.007    0.001206   -0.000000    0.027985
   1 H     1.0000    0     1.008    1.786594    0.000000   -0.632656
   2 H     1.0000    0     1.008   -0.893900    1.545644   -0.633079
   3 H     1.0000    0     1.008   -0.893900   -1.545644   -0.633079

--------------------------------
INTERNAL COORDINATES (ANGSTROEM)
--------------------------------
 N      0   0   0     0.000000000000     0.00000000     0.00000000
 H      1   0   0     1.007392122397     0.00000000     0.00000000
 H      1   2   0     1.007834006624   108.68258742     0.00000000
 H      1   2   3     1.007834006623   108.68258742   117.89693552

---------------------------
INTERNAL COORDINATES (A.U.)
---------------------------
 N      0   0   0     0.000000000000     0.00000000     0.00000000
 H      1   0   0     1.903695220801     0.00000000     0.00000000
 H      1   2   0     1.904530260971   108.68258742     0.00000000
 H      1   2   3     1.904530260969   108.68258742   117.89693552



           ************************************************************
           *        Program running with 4 parallel MPI-processes     *
           *              working on a common directory               *
           ************************************************************
------------------------------------------------------------------------------
                   ___                                                        
                  /   \      - P O W E R E D   B Y -                         
                 /     \                                                     
                 |  |  |   _    _      __       _____    __    __             
                 |  |  |  | |  | |    /  \     |  _  \  |  |  /  |          
                  \  \/   | |  | |   /    \    | | | |  |  | /  /          
                 / \  \   | |__| |  /  /\  \   | |_| |  |  |/  /          
                |  |  |   |  __  | /  /__\  \  |    /   |      \           
                |  |  |   | |  | | |   __   |  |    \   |  |\   \          
                \     /   | |  | | |  |  |  |  | |\  \  |  | \   \       
                 \___/    |_|  |_| |__|  |__|  |_| \__\ |__|  \__/        
                                                                              
                      - O R C A' S   B I G   F R I E N D -                    
                                      &                                       
                       - I N T E G R A L  F E E D E R -                       
                                                                              
 v1 FN, 2020, v2 2021, v3 2022-2024                                           
------------------------------------------------------------------------------


----------------------
SHARK INTEGRAL PACKAGE
----------------------

Number of atoms                             ...      4
Number of basis functions                   ...     78
Number of shells                            ...     34
Maximum angular momentum                    ...      3
Integral batch strategy                     ... SHARK/LIBINT Hybrid
RI-J (if used) integral strategy            ... SPLIT-RIJ (Revised 2003 algorithm where possible)
Printlevel                                  ...      1
Contraction scheme used                     ... PARTIAL GENERAL contraction
Prescreening option                         ... SCHWARTZ
   Thresh                                   ... 1.000e-13
   Tcut                                     ... 1.000e-15
   Tpresel                                  ... 1.000e-15 
Coulomb Range Separation                    ... NOT USED
Exchange Range Separation                   ... NOT USED
Multipole approximations                    ... NOT USED
Finite Nucleus Model                        ... NOT USED
CABS basis                                  ... NOT available
Auxiliary Coulomb fitting basis             ... NOT available
Auxiliary J/K fitting basis                 ... NOT available
Auxiliary Correlation fitting basis         ... NOT available
Auxiliary 'external' fitting basis          ... NOT available

Checking pre-screening integrals            ... done (  0.0 sec) Dimension = 34
Save PGC pre-screening integrals            ... done (  0.0 sec) Dimension = 34
Calculate PGC overlap integrals             ... done (  0.0 sec) Dimension = 28
Calculating pre-screening integrals (ORCA)  ... done (  0.0 sec) Dimension = 28
Shell pair information
Shell pair cut-off parameter TPreSel        ...   1.0e-15
Total number of shell pairs                 ...       595
Shell pairs after pre-screening             ...       595
Total number of primitive shell pairs       ...       915
Primitive shell pairs kept                  ...       888
          la=0 lb=0:    190 shell pairs
          la=1 lb=0:    171 shell pairs
          la=1 lb=1:     45 shell pairs
          la=2 lb=0:     95 shell pairs
          la=2 lb=1:     45 shell pairs
          la=2 lb=2:     15 shell pairs
          la=3 lb=0:     19 shell pairs
          la=3 lb=1:      9 shell pairs
          la=3 lb=2:      5 shell pairs
          la=3 lb=3:      1 shell pairs

Checking whether 4 symmetric matrices of dimension 78 fit in memory
:Max Core in MB      =   4096.00
 MB in use           =      2.57
 MB left             =   4093.43
 MB needed           =      0.09
 Data fit in memory  = YES
Calculating Nuclear repulsion               ... done (  0.0 sec) ENN=     11.997813863700 Eh

Diagonalization of the overlap matrix:
Smallest eigenvalue                        ... 1.805e-03
Time for diagonalization                   ...    0.001 sec
Threshold for overlap eigenvalues          ... 1.000e-07
Number of eigenvalues below threshold      ... 0
Time for construction of square roots      ...    0.000 sec
Total time needed                          ...    0.001 sec

-------------------
DFT GRID GENERATION
-------------------

General Integration Accuracy     IntAcc      ... 4.388
Radial Grid Type                 RadialGrid  ... OptM3 with GC (2021)
Angular Grid (max. ang.)         AngularGrid ... 4 (Lebedev-302)
Angular grid pruning method      GridPruning ... 4 (adaptive)
Weight generation scheme         WeightScheme... mBecke (2022)
Basis function cutoff            BFCut       ... 1.0000e-13
Integration weight cutoff        WCut        ... 1.0000e-14
Partially contracted basis set               ... off
Rotationally invariant grid construction     ... off
Angular grids for H and He will be reduced by one unit

Total number of grid points                  ...    16018
Total number of batches                      ...      252
Average number of points per batch           ...       63
Average number of grid points per atom       ...     4004

---------------------
SHARK GRID GENERATION
---------------------

General Integration Accuracy     IntAcc      ... 4.388
Radial Grid Type                 RadialGrid  ... OptM3 with GC (2021)
Angular Grid (max. ang.)         AngularGrid ... 4 (Lebedev-302)
Angular grid pruning method      GridPruning ... 4 (adaptive)
Weight generation scheme         WeightScheme... mBecke (2022)
Basis function cutoff            BFCut       ... 1.0000e-13
Integration weight cutoff        WCut        ... 1.0000e-14
Partially contracted basis set               ... off
Rotationally invariant grid construction     ... off
Angular grids for H and He will be reduced by one unit
Steep s-basis detected: some atoms will have their radial
                        grid points doubled.

Total number of grid points                  ...    22250
Total number of batches                      ...      349
Average number of points per batch           ...       63
Average number of grid points per atom       ...     5562
Grids setup in   0.1 sec
Initializing property integral containers    ... done (  0.0 sec)

SHARK setup successfully completed in   0.2 seconds

Maximum memory used throughout the entire STARTUP-calculation: 16.7 MB


           ************************************************************
           *        Program running with 4 parallel MPI-processes     *
           *              working on a common directory               *
           ************************************************************
Occupation numbers will be reassigned to an Aufbau configuration
             **** ENERGY FILE WAS UPDATED (nh3.en.tmp) ****
Finished Guess after   0.1 sec
Maximum memory used throughout the entire GUESS-calculation: 6.2 MB


           ************************************************************
           *        Program running with 4 parallel MPI-processes     *
           *              working on a common directory               *
           ************************************************************
----------------------------------------D-I-I-S--------------------------------------------
Iteration    Energy (Eh)           Delta-E    RMSDP     MaxDP     DIISErr   Damp  Time(sec)
-------------------------------------------------------------------------------------------
               ***  Starting incremental Fock matrix formation  ***
    1    -56.2177330408122700     0.00e+00  1.67e-04  1.06e-03  9.87e-03  0.700   0.0
    2    -56.2177961839104299    -6.31e-05  1.46e-04  9.85e-04  6.75e-03  0.700   0.1
                               ***Turning on AO-DIIS***
    3    -56.2178429025635538    -4.67e-05  1.33e-04  8.40e-04  4.42e-03  0.700   0.1
    4    -56.2178774456994930    -3.45e-05  3.84e-04  2.79e-03  3.33e-03  0.000   0.0
                              *** Initializing SOSCF ***
---------------------------------------S-O-S-C-F--------------------------------------
Iteration    Energy (Eh)           Delta-E    RMSDP     MaxDP     MaxGrad    Time(sec)
--------------------------------------------------------------------------------------
    5    -56.2179720668263272    -9.46e-05  6.91e-05  5.67e-04  5.56e-04     0.1
               *** Restarting incremental Fock matrix formation ***
    6    -56.2179734892958223    -1.42e-06  5.84e-05  5.81e-04  2.37e-04     0.0
    7    -56.2179738856810118    -3.96e-07  4.88e-05  4.82e-04  1.14e-04     0.0
    8    -56.2179740027928361    -1.17e-07  1.48e-06  1.14e-05  8.26e-06     0.0
    9    -56.2179740035152307    -7.22e-10  1.12e-06  1.72e-05  6.66e-06     0.0
   10    -56.2179740036766376    -1.61e-10  1.76e-07  2.47e-06  8.24e-07     0.0
   11    -56.2179740036819240    -5.29e-12  3.94e-08  3.27e-07  1.58e-07     0.0
                 **** Energy Check signals convergence ****

               *****************************************************
               *                     SUCCESS                       *
               *           SCF CONVERGED AFTER  11 CYCLES          *
               *****************************************************

             **** ENERGY FILE WAS UPDATED (nh3.en.tmp) ****

----------------
TOTAL SCF ENERGY
----------------

Total Energy       :        -56.21797400368221 Eh           -1529.76884 eV

Components:
Nuclear Repulsion  :         11.99781386369989 Eh             326.47711 eV
Electronic Energy  :        -68.21578786738210 Eh           -1856.24596 eV
One Electron Energy:        -99.74577381037398 Eh           -2714.22049 eV
Two Electron Energy:         31.52998594299187 Eh             857.97454 eV

Virial components:
Potential Energy   :       -112.38805283211289 Eh           -3058.23440 eV
Kinetic Energy     :         56.17007882843069 Eh            1528.46555 eV
Virial Ratio       :          2.00085268128958

---------------
SCF CONVERGENCE
---------------

  Last Energy change         ...    5.2864e-12  Tolerance :   1.0000e-10
  Last MAX-Density change    ...    3.2703e-07  Tolerance :   1.0000e-09
  Last RMS-Density change    ...    3.9448e-08  Tolerance :   1.0000e-10
  Last DIIS Error            ...    5.5557e-04  Tolerance :   1.0000e-09
  Last Orbital Gradient      ...    1.5760e-07  Tolerance :   2.0000e-07
  Last Orbital Rotation      ...    1.4976e-07  Tolerance :   2.0000e-07


Total SCF time: 0 days 0 hours 0 min 0 sec 
Finished LeanSCF after   0.7 sec

Maximum memory used throughout the entire LEANSCF-calculation: 10.5 MB


           ************************************************************
           *        Program running with 4 parallel MPI-processes     *
           *              working on a common directory               *
           ************************************************************

------------------------------------------------------------------------------
                                ORCA  MP2 
------------------------------------------------------------------------------

NOTE: Switching SHARK to Segmented Contraction for MP2
      If that is not desired please turn off the PGCFlag in the input (%shark PGCFlag 0 end)
      Number of basis functions in BAS before restore: 78
      Number of basis functions in BAS after restore : 72
Freezing NCore=2 chemical core electrons
MP2 will be done in the AO integral direct mode
The Q1-step will be done using symmetric double matrices
Dimension of the basis                    ...   72
Memory devoted for MP2                    ... 4096 MB   
Memory needed for all in one shot         ...    2 MB
Number of MOs that can be treated together... 2836      
MP2 density construction                  ... relaxed
The MP2 gradient is requested => amplitudes will be stored on disk
Total number of MOs              ...    4
Number of MOs treated per batch  ...    1 
Number of batches necessary      ...    1 
OPERATORS   0/  0 PASS   1
OPERATORS   0/  0 PASS   3
OPERATORS   0/  0 PASS   0
OPERATORS   0/  0 PASS   2
-----------------------------------------------
 MP2 CORRELATION ENERGY   :     -0.234654149 Eh
-----------------------------------------------


---------------------
MP2 DENSITY FORMATION
---------------------

Completing the external part of the density      ... done
Storing the unrelaxed density                    ... done

Calculating G(D)                                 ... done
Completing the Lagrangian                        ... done
Solving the Z-vector equations                   ... 
-------------------
SHARK CP-SCF DRIVER
-------------------

Dimension of the orbital basis          ...     72
Dimension of the CPSCF-problem          ...    335
Number of operators                     ...      1
Max. number of iterations               ...    128
Convergence Tolerance                   ... 3.0e-06
Number of perturbations                 ...      1
Perturbation type                       ... REAL

----------------------------
POPLE LINEAR EQUATION SOLVER
----------------------------

  ITERATION   0:   ||err||_max =   3.6642e-02 (   0.1 sec)
  ITERATION   1:   ||err||_max =   7.9183e-03 (   0.1 sec)
  ITERATION   2:   ||err||_max =   1.4026e-03 (   0.1 sec)
  ITERATION   3:   ||err||_max =   3.5807e-04 (   0.1 sec)
  ITERATION   4:   ||err||_max =   8.9338e-05 (   0.1 sec)
  ITERATION   5:   ||err||_max =   1.4006e-05 (   0.1 sec)
  ITERATION   6:   ||err||_max =   1.7920e-06 (   0.1 sec)
                                                 ... done
Finalizing the relaxed density                   ... done
Transforming P to the AO basis                   ... done
Storing the relaxed density                      ... done

------------------------------------
ENERGY WEIGHTED DENSITY FINALIZATION
------------------------------------

Gathering the parts of the W-matrix              ...                                                      done
Forming the Z-density                            ... done
Transforming Z to the AO basis                   ... done
Calculating G(Z)                                 ... done
Finalizing the W-matrix                          ...                                                      done
[...]

General magnetic properties:
Magnetizability                         ...  NO

EPR properties:
g-Tensor (aka g-matrix)                 ...  NO
Zero-Field splitting spin-orbit         ...  NO
Zero-field splitting spin-spin          ...  NO
Hyperfine couplings                     ...  NO (   0 nuclei)
Quadrupole couplings                    ...  NO (   0 nuclei)
Contact density                         ...  NO (   0 nuclei)

NMR properties:
Chemical shifts                         ...  NO (   0 nuclei)
Spin-rotation constants                 ...  NO (   0 nuclei)
Spin-spin couplings                     ...  NO (   0 nuclei,    0 pairs)

Choice of magnetic origin               ... GIAO
Position of magnetic origin             ...     0.000000     0.000000     0.000000

Properties with geometric perturbations:
SCF Hessian                             ...  NO
IR spectrum                             ...  NO
VCD spectrum                            ...  NO
X-ray spectroscopy properties:
SCF XES/XAS/RIXS spectra                ...  NO

SCF SOC stabilization energy            ...  NO
Diagonal Born-Oppenheimer correction    ...  NO

-------------
DIPOLE MOMENT
-------------

Method             : SCF
Type of density    : Electron Density
Multiplicity       :   1
Irrep              :   0
Energy             :   -56.2178289915956100 Eh
Basis              : AO
                                X                 Y                 Z
Electronic contribution:     -0.000000077       0.000000000       0.242697216
Nuclear contribution   :     -0.000018194      -0.000000000      -0.906909012
                        -----------------------------------------
Total Dipole Moment    :     -0.000018271      -0.000000000      -0.664211797
                        -----------------------------------------
Magnitude (a.u.)       :      0.664211797
Magnitude (Debye)      :      1.688292217



--------------------
Rotational spectrum 
--------------------
 
Rotational constants in cm-1:             9.936701             9.936530             6.412517 
Rotational constants in MHz :        297894.794359        297889.669256        192242.423422 

Dipole components along the rotational axes: 
x,y,z [a.u.] :    -0.000000    -0.000010    -0.664212 
x,y,z [Debye]:    -0.000000    -0.000025    -1.688292 

 

-------------
DIPOLE MOMENT
-------------

Method             : MP2
Type of density    : Electron Density
Multiplicity       :   1
Level              : Unrelaxed density
Irrep              :   0
Energy             :     0.0000000000000000 Eh
Basis              : AO
                                X                 Y                 Z
Electronic contribution:      0.000000066       0.000000000       0.250595877
Nuclear contribution   :     -0.000018194      -0.000000000      -0.906909012
                        -----------------------------------------
Total Dipole Moment    :     -0.000018129      -0.000000000      -0.656313135
                        -----------------------------------------
Magnitude (a.u.)       :      0.656313135
Magnitude (Debye)      :      1.668215415



--------------------
Rotational spectrum 
--------------------
 
Rotational constants in cm-1:             9.936701             9.936530             6.412517 
Rotational constants in MHz :        297894.794359        297889.669256        192242.423422 

Dipole components along the rotational axes: 
x,y,z [a.u.] :    -0.000000    -0.000010    -0.656313 
x,y,z [Debye]:    -0.000000    -0.000024    -1.668215 

 

-------------
DIPOLE MOMENT
-------------

Method             : MP2
Type of density    : Electron Density
Multiplicity       :   1
Level              : Relaxed density
Irrep              :   0
Energy             :     0.0000000000000000 Eh
Basis              : AO
                                X                 Y                 Z
Electronic contribution:      0.000000607       0.000000000       0.268967321
Nuclear contribution   :     -0.000018194      -0.000000000      -0.906909012
                        -----------------------------------------
Total Dipole Moment    :     -0.000017588      -0.000000000      -0.637941692
                        -----------------------------------------
Magnitude (a.u.)       :      0.637941692
Magnitude (Debye)      :      1.621518916



--------------------
Rotational spectrum 
--------------------
 
Rotational constants in cm-1:             9.936701             9.936530             6.412517 
Rotational constants in MHz :        297894.794359        297889.669256        192242.423422 

Dipole components along the rotational axes: 
x,y,z [a.u.] :    -0.000000    -0.000009    -0.637942 
x,y,z [Debye]:    -0.000000    -0.000024    -1.621519 

 

Dipole moment calculation done in   0.0 sec 

Maximum memory used throughout the entire PROP-calculation: 3.1 MB

----------------------------------------------------------------------------
                           ORCA NUMERICAL FREQUENCIES
                              (4-process run)
----------------------------------------------------------------------------

Number of atoms                ... 4
Central differences            ... used
Translation invariance         ... used
Number of displacements        ... 24 - 6
Numerical increment            ... 5.000e-03 bohr
IR-spectrum generation         ... on
Raman-spectrum generation      ... off
Surface Crossing Hessian       ... off

The output will be reduced. Please look at the following files:
SCF program output             ... >nh3.lastscf
Integral program output        ... >nh3.lastint
Gradient program output        ... >nh3.lastgrad
Dipole moment program output   ... >nh3.lastmom

List of participating nodes    ...  nh3.hostnames

	<< Calculating gradient on displaced geometry   1 (of  18) >>
	<< Calculating gradient on displaced geometry   2 (of  18) >>
	<< Calculating gradient on displaced geometry   4 (of  18) >>
	<< Calculating gradient on displaced geometry   3 (of  18) >>
	<< Calculating gradient on displaced geometry   5 (of  18) >>
	<< Calculating gradient on displaced geometry   6 (of  18) >>
	<< Calculating gradient on displaced geometry   7 (of  18) >>
	<< Calculating gradient on displaced geometry   8 (of  18) >>
	<< Calculating gradient on displaced geometry   9 (of  18) >>
	<< Calculating gradient on displaced geometry  10 (of  18) >>
	<< Calculating gradient on displaced geometry  12 (of  18) >>
	<< Calculating gradient on displaced geometry  11 (of  18) >>
	<< Calculating gradient on displaced geometry  13 (of  18) >>
	<< Calculating gradient on displaced geometry  14 (of  18) >>
	<< Calculating gradient on displaced geometry  15 (of  18) >>
	<< Calculating gradient on displaced geometry  16 (of  18) >>
	<< Calculating gradient on displaced geometry  17 (of  18) >>
	<< Calculating gradient on displaced geometry  18 (of  18) >>

-----------------------
VIBRATIONAL FREQUENCIES
-----------------------

Scaling factor for frequencies =  1.000000000  (already applied!)

     0:       0.00 cm**-1
     1:       0.00 cm**-1
     2:       0.00 cm**-1
     3:       0.00 cm**-1
     4:       0.00 cm**-1
     5:       0.00 cm**-1
     6:    1087.95 cm**-1
     7:    1686.48 cm**-1
     8:    1686.51 cm**-1
     9:    3511.48 cm**-1
    10:    3654.36 cm**-1
    11:    3654.39 cm**-1


------------
NORMAL MODES
------------

These modes are the Cartesian displacements weighted by the diagonal matrix
M(i,i)=1/sqrt(m[i]) where m[i] is the mass of the displaced atom
Thus, these vectors are normalized but *not* orthogonal

                  0          1          2          3          4          5    
      0       0.000000   0.000000   0.000000   0.000000   0.000000   0.000000
      1       0.000000   0.000000   0.000000   0.000000   0.000000   0.000000
      2       0.000000   0.000000   0.000000   0.000000   0.000000   0.000000
      3       0.000000   0.000000   0.000000   0.000000   0.000000   0.000000
      4       0.000000   0.000000   0.000000   0.000000   0.000000   0.000000
      5       0.000000   0.000000   0.000000   0.000000   0.000000   0.000000
      6       0.000000   0.000000   0.000000   0.000000   0.000000   0.000000
      7       0.000000   0.000000   0.000000   0.000000   0.000000   0.000000
      8       0.000000   0.000000   0.000000   0.000000   0.000000   0.000000
      9       0.000000   0.000000   0.000000   0.000000   0.000000   0.000000
     10       0.000000   0.000000   0.000000   0.000000   0.000000   0.000000
     11       0.000000   0.000000   0.000000   0.000000   0.000000   0.000000
                  6          7          8          9         10         11    
      0      -0.000005   0.036059  -0.055751  -0.000008   0.075994   0.020265
      1      -0.000000   0.055751   0.036059   0.000006  -0.020265   0.075994
      2      -0.115065  -0.000002   0.000003  -0.038693  -0.000007   0.000001
      3       0.211809   0.078192  -0.120889  -0.548296  -0.728327  -0.194177
      4       0.000000  -0.637348  -0.412231   0.000002  -0.006474   0.024273
      5       0.532958   0.140430  -0.217118   0.179213   0.295994   0.078919
      6      -0.105873  -0.617947   0.235446   0.274231  -0.250733   0.282154
      7       0.183431  -0.281028   0.283897  -0.474984   0.469846  -0.453214
      8       0.532983   0.117837   0.230155   0.179247  -0.216292   0.216821
      9      -0.105870   0.038683   0.660151   0.274179  -0.076934  -0.369577
     10      -0.183426   0.143674  -0.372732   0.474897  -0.181767  -0.627065
     11       0.532985  -0.258236  -0.013083   0.179206  -0.079605  -0.295753


-----------
IR SPECTRUM
-----------

 Mode   freq       eps      Int      T**2         TX        TY        TZ
       cm**-1   L/(mol*cm) km/mol    a.u.
----------------------------------------------------------------------------
  6:   1087.95   0.028821  145.65  0.008267  (-0.000001 -0.000007  0.090923)
  7:   1686.48   0.003036   15.34  0.000562  (-0.012880 -0.019896 -0.000003)
  8:   1686.51   0.003043   15.38  0.000563  ( 0.019925 -0.012884 -0.000007)
  9:   3511.48   0.000266    1.34  0.000024  ( 0.000006  0.000011 -0.004863)
 10:   3654.36   0.000638    3.23  0.000055  (-0.007136  0.001899 -0.000002)
 11:   3654.39   0.000642    3.24  0.000055  (-0.001907 -0.007152  0.000006)

* The epsilon (eps) is given for a Dirac delta lineshape.
** The dipole moment derivative (T) already includes vibrational overlap.

The first frequency considered to be a vibration is 6
The total number of vibrations considered is 6


--------------------------
THERMOCHEMISTRY AT 298.15K
--------------------------

Temperature         ...   298.15 K
Pressure            ...     1.00 atm
Total Mass          ...    17.03 AMU
Quasi RRHO          ...     True
Cut-Off Frequency   ...     1.00 cm^-1

Throughout the following assumptions are being made:
  (1) The electronic state is orbitally nondegenerate
  (2) There are no thermally accessible electronically excited states
  (3) Hindered rotations indicated by low frequency modes are not
      treated as such but are treated as vibrations and this may
      cause some error
  (4) All equations used are the standard statistical mechanics
      equations for an ideal gas
  (5) All vibrations are strictly harmonic

freq.    1087.95  E(vib)   ...       0.02 
freq.    1686.48  E(vib)   ...       0.00 
freq.    1686.51  E(vib)   ...       0.00 
freq.    3511.48  E(vib)   ...       0.00 
freq.    3654.36  E(vib)   ...       0.00 
freq.    3654.39  E(vib)   ...       0.00 

------------
INNER ENERGY
------------

The inner energy is: U= E(el) + E(ZPE) + E(vib) + E(rot) + E(trans)
    E(el)   - is the total energy from the electronic structure calculation
              = E(kin-el) + E(nuc-el) + E(el-el) + E(nuc-nuc)
    E(ZPE)  - the the zero temperature vibrational energy from the frequency calculation
    E(vib)  - the the finite temperature correction to E(ZPE) due to population
              of excited vibrational states
    E(rot)  - is the rotational thermal energy
    E(trans)- is the translational thermal energy

Summary of contributions to the inner energy U:
Electronic energy                ...    -56.45299230 Eh
Zero point energy                ...      0.03481309 Eh      21.85 kcal/mol
Thermal vibrational correction   ...      0.00003064 Eh       0.02 kcal/mol
Thermal rotational correction    ...      0.00141627 Eh       0.89 kcal/mol
Thermal translational correction ...      0.00141627 Eh       0.89 kcal/mol
-----------------------------------------------------------------------
Total thermal energy                    -56.41531602 Eh


Summary of corrections to the electronic energy:
(perhaps to be used in another calculation)
Total thermal correction                  0.00286319 Eh       1.80 kcal/mol
Non-thermal (ZPE) correction              0.03481309 Eh      21.85 kcal/mol
-----------------------------------------------------------------------
Total correction                          0.03767628 Eh      23.64 kcal/mol


--------
ENTHALPY
--------

The enthalpy is H = U + kB*T
                kB is Boltzmann's constant
Total thermal energy              ...    -56.41531602 Eh 
Thermal Enthalpy correction       ...      0.00094421 Eh       0.59 kcal/mol
-----------------------------------------------------------------------
Total Enthalpy                    ...    -56.41437181 Eh


Note: Rotational entropy computed according to Herzberg 
Infrared and Raman Spectra, Chapter V,1, Van Nostrand Reinhold, 1945 
Point Group:  C3v, Symmetry Number:   3  
Rotational constants in cm-1:     9.936709     9.936538     6.412523 

Vibrational entropy computed according to the QRRHO of S. Grimme
Chem.Eur.J. 2012 18 9955 using a reference frequency of 100.0 cm-1


-------
ENTROPY
-------

The entropy contributions are T*S = T*(S(el)+S(vib)+S(rot)+S(trans))
     S(el)   - electronic entropy
     S(vib)  - vibrational entropy
     S(rot)  - rotational entropy
     S(trans)- translational entropy
The entropies will be listed as multiplied by the temperature to get
units of energy

Electronic entropy                ...      0.00000000 Eh      0.00 kcal/mol
Vibrational entropy               ...      0.00003617 Eh      0.02 kcal/mol
Rotational entropy                ...      0.00542820 Eh      3.41 kcal/mol
Translational entropy             ...      0.01636425 Eh     10.27 kcal/mol
-----------------------------------------------------------------------
Final entropy term                ...      0.02182863 Eh     13.70 kcal/mol

In case the symmetry of your molecule has not been determined correctly
or in case you have a reason to use a different symmetry number we print 
out the resulting rotational entropy values for sn=1,12:

 non-linear molecules -----------------------------------
|  sn= 1 | S(rot)=       0.00646549 Eh      4.06 kcal/mol|
|  sn= 2 | S(rot)=       0.00581104 Eh      3.65 kcal/mol|
|  sn= 3 | S(rot)=       0.00542820 Eh      3.41 kcal/mol|
|  sn= 4 | S(rot)=       0.00515658 Eh      3.24 kcal/mol|
|  sn= 5 | S(rot)=       0.00494589 Eh      3.10 kcal/mol|
|  sn= 6 | S(rot)=       0.00477375 Eh      3.00 kcal/mol|
|  sn= 7 | S(rot)=       0.00462820 Eh      2.90 kcal/mol|
|  sn= 8 | S(rot)=       0.00450212 Eh      2.83 kcal/mol|
|  sn= 9 | S(rot)=       0.00439092 Eh      2.76 kcal/mol|
|  sn=10 | S(rot)=       0.00429144 Eh      2.69 kcal/mol|
|  sn=11 | S(rot)=       0.00420145 Eh      2.64 kcal/mol|
|  sn=12 | S(rot)=       0.00411929 Eh      2.58 kcal/mol|
 linear molecules ---------------------------------------
|  Dinfh | S(rot)=       0.00357128 Eh      2.24 kcal/mol|
|  Cinfv | S(rot)=       0.00422574 Eh      2.65 kcal/mol|
 --------------------------------------------------------


-------------------
GIBBS FREE ENERGY
-------------------

The Gibbs free energy is G = H - T*S

Total enthalpy                    ...    -56.41437181 Eh 
Total entropy correction          ...     -0.02182863 Eh    -13.70 kcal/mol
-----------------------------------------------------------------------
Final Gibbs free energy         ...    -56.43620044 Eh

For completeness - the Gibbs free energy minus the electronic energy
G-E(el)                           ...      0.01679186 Eh     10.54 kcal/mol



--------------------------------
SUGGESTED CITATIONS FOR THIS RUN
--------------------------------

Below you find a list of papers that are relevant to this ORCA run
We neither can nor want to force you to cite these papers, but we appreciate if you do
You receive ORCA, which is the product of decades of hard work by many enthusiastic individuals, for free
The only thing we kindly ask in return is that you cite our papers,
We deeply appreciate it, if you show your appreciation for ORCA by not just citing the generic ORCA reference.

Please note that relegating all ORCA citations to the supporting information does *not* help us.
SI sections are not indexed - citations you put there will not count into any citation statistics
But we need these citations in order to attract the funding resources that allow us to do what we are doing

Therefore, if you are a happy ORCA user, please consider citing a few of the papers listed below in the main body of your paper

In addition to the list printed below, the program has created the file nh3.bibtex that contains the list in bibtex format
You can import this file easily into all common literature databanks and citation aid programs


List of essential papers. We consider these as the minimum necessary citations

  1. Neese, F.
     Software update: the ORCA program system, version 6.0
     WIRES Comput. Molec. Sci. 2025 15(1), e70019
     doi.org/10.1002/wcms.7019

List of papers to cite with high priority. The work reported in these papers was absolutely
necessary for this run to complete.
Our perspective: the developers of density functionals and basis sets usually get cited in chemistry papers
Good! But without the algorithms to do something with them, the functionals or basis sets would not do anything.
Hence, in our opinion, the algorithm design and method developments papers are equally worthy of getting cited

  1. Neese, F.
     The SHARK Integral Generation and Digestion System
     J. Comp. Chem. 2022 44(3), 381
     doi.org/10.1002/jcc.26942

List of suggested additional citations. These are papers that are important in the 'surrounding' of 
of this run, or papers that preceded the highly important papers. If you like your results we are grateful for a citation.

  1. Neese, F.
     The ORCA program system
     WIRES Comput. Molec. Sci. 2012 2(1), 73-78
     doi.org/10.1002/wcms.81
  2. Neese, F.
     Software update: the ORCA program system, version 4.0
     WIRES Comput. Molec. Sci. 2018 8(1), 1-6
     doi.org/10.1002/wcms.1327
  3. Neese, F.; Wennmohs, F.; Becker, U.; Riplinger, C.
     The ORCA quantum chemistry program package
     J. Chem. Phys. 2020 152(22), 224108
     doi.org/10.1063/5.0004608
  4. Neese, F.
     Software update: The ORCA program system—Version 5.0
     WIRES Comput. Molec. Sci. 2022 12(1), e1606
     doi.org/10.1002/wcms.1606

List of optional additional citations

  1. Neese, F.
     Approximate second-order SCF convergence for spin unrestricted wavefunctions
     Chem. Phys. Lett. 2000 325(1-3), 93-98
     doi.org/10.1016/s0009-2614(00)00662-x

Timings for individual modules:

Sum of individual times          ...       45.394 sec (=   0.757 min)
Startup calculation              ...        3.036 sec (=   0.051 min)   6.7 %
SCF iterations                   ...        6.232 sec (=   0.104 min)  13.7 %
Property calculations            ...        0.222 sec (=   0.004 min)   0.5 %
MP2 module                       ...       10.316 sec (=   0.172 min)  22.7 %
Geometry relaxation              ...        0.009 sec (=   0.000 min)   0.0 %
Numerical frequency calculation  ...       25.580 sec (=   0.426 min)  56.4 %
                             ****ORCA TERMINATED NORMALLY****
TOTAL RUN TIME: 0 days 0 hours 0 minutes 44 seconds 504 msec
