6
Coordinates from ORCA-job n2h4 Relaxed Surface Scan Step 1 E -111.461072695742
  N       0.047479      0.241470      0.043894
  N       0.939165      0.078076      0.275458
  H      -0.811788      0.357080      0.704206
  H      -0.381229      0.361337     -0.950862
  H       1.439115     -0.881888      0.402969
  H       1.727259      0.801926      0.482335
>
6
Coordinates from ORCA-job n2h4 Relaxed Surface Scan Step 2 E -111.486516884762
  N       0.042687      0.242342      0.042657
  N       0.943997      0.077167      0.276716
  H      -0.810597      0.357000      0.702208
  H      -0.381170      0.361240     -0.948549
  H       1.438895     -0.879620      0.402913
  H       1.726189      0.799871      0.482055
>
6
Coordinates from ORCA-job n2h4 Relaxed Surface Scan Step 3 E -111.510473301683
  N       0.037872      0.243214      0.041408
  N       0.948809      0.076281      0.277967
  H      -0.809582      0.356915      0.700536
  H      -0.381099      0.361138     -0.946596
  H       1.438673     -0.877678      0.402856
  H       1.725326      0.798129      0.481829
>
6
Coordinates from ORCA-job n2h4 Relaxed Surface Scan Step 4 E -111.533022807394
  N       0.033057      0.244087      0.040158
  N       0.953621      0.075394      0.279218
  H      -0.808759      0.356853      0.699067
  H      -0.381095      0.361062     -0.944912
  H       1.438543     -0.875999      0.402822
  H       1.724633      0.796603      0.481647
>
6
Coordinates from ORCA-job n2h4 Relaxed Surface Scan Step 5 E -111.554240114347
  N       0.028242      0.244961      0.038908
  N       0.958434      0.074507      0.280468
  H      -0.808117      0.356813      0.697784
  H      -0.381159      0.361008     -0.943478
  H       1.438498     -0.874564      0.402811
  H       1.724102      0.795276      0.481508
>
6
Coordinates from ORCA-job n2h4 Relaxed Surface Scan Step 6 E -111.574195497850
  N       0.023428      0.245837      0.037658
  N       0.963246      0.073620      0.281718
  H      -0.807645      0.356793      0.696672
  H      -0.381287      0.360976     -0.942277
  H       1.438534     -0.873357      0.402820
  H       1.723724      0.794132      0.481409
>
6
Coordinates from ORCA-job n2h4 Relaxed Surface Scan Step 7 E -111.592955301680
  N       0.018614      0.246712      0.036408
  N       0.968059      0.072735      0.282968
  H      -0.807333      0.356791      0.695719
  H      -0.381480      0.360964     -0.941293
  H       1.438649     -0.872361      0.402849
  H       1.723491      0.793158      0.481348
>
6
Coordinates from ORCA-job n2h4 Relaxed Surface Scan Step 8 E -111.610582201653
  N       0.013800      0.247589      0.035157
  N       0.972872      0.071851      0.284218
  H      -0.807173      0.356807      0.694912
  H      -0.381734      0.360972     -0.940510
  H       1.438838     -0.871561      0.402898
  H       1.723397      0.792341      0.481324
>
6
Coordinates from ORCA-job n2h4 Relaxed Surface Scan Step 9 E -111.627135504461
  N       0.008986      0.248465      0.033906
  N       0.977685      0.070969      0.285469
  H      -0.807156      0.356841      0.694240
  H      -0.382049      0.360999     -0.939914
  H       1.439101     -0.870943      0.402966
  H       1.723434      0.791669      0.481334
>
6
Coordinates from ORCA-job n2h4 Relaxed Surface Scan Step 10 E -111.642671272437
  N       0.004172      0.249340      0.032654
  N       0.982498      0.070087      0.286720
  H      -0.807276      0.356892      0.693691
  H      -0.382422      0.361044     -0.939493
  H       1.439434     -0.870495      0.403052
  H       1.723593      0.791131      0.481375
>
6
Coordinates from ORCA-job n2h4 Relaxed Surface Scan Step 11 E -111.657242490808
  N      -0.000642      0.250214      0.031403
  N       0.987311      0.069205      0.287973
  H      -0.807525      0.356960      0.693256
  H      -0.382852      0.361108     -0.939234
  H       1.439837     -0.870204      0.403156
  H       1.723870      0.790716      0.481447
>
6
Coordinates from ORCA-job n2h4 Relaxed Surface Scan Step 12 E -111.670899187310
  N      -0.005456      0.251088      0.030152
  N       0.992123      0.068322      0.289226
  H      -0.807896      0.357045      0.692925
  H      -0.383336      0.361189     -0.939125
  H       1.440307     -0.870058      0.403276
  H       1.724258      0.790415      0.481546
>
6
Coordinates from ORCA-job n2h4 Relaxed Surface Scan Step 13 E -111.683688610958
  N      -0.010271      0.251962      0.028902
  N       0.996936      0.067438      0.290479
  H      -0.808383      0.357144      0.692690
  H      -0.383873      0.361287     -0.939156
  H       1.440842     -0.870049      0.403413
  H       1.724749      0.790218      0.481672
>
6
Coordinates from ORCA-job n2h4 Relaxed Surface Scan Step 14 E -111.695655408020
  N      -0.015085      0.252837      0.027653
  N       1.001748      0.066553      0.291732
  H      -0.808980      0.357258      0.692543
  H      -0.384463      0.361399     -0.939318
  H       1.441440     -0.870166      0.403566
  H       1.725341      0.790118      0.481824
>
6
Coordinates from ORCA-job n2h4 Relaxed Surface Scan Step 15 E -111.706841758525
  N      -0.019899      0.253714      0.026404
  N       1.006560      0.065668      0.292984
  H      -0.809680      0.357385      0.692477
  H      -0.385104      0.361526     -0.939600
  H       1.442097     -0.870399      0.403734
  H       1.726027      0.790106      0.482001
>
6
Coordinates from ORCA-job n2h4 Relaxed Surface Scan Step 16 E -111.717287611269
  N      -0.024713      0.254595      0.025155
  N       1.011373      0.064783      0.294236
  H      -0.810480      0.357524      0.692484
  H      -0.385795      0.361665     -0.939994
  H       1.442811     -0.870741      0.403917
  H       1.726804      0.790175      0.482202
>
6
Coordinates from ORCA-job n2h4 Relaxed Surface Scan Step 17 E -111.727030812762
  N      -0.029526      0.255479      0.023906
  N       1.016186      0.063899      0.295486
  H      -0.811372      0.357673      0.692560
  H      -0.386536      0.361815     -0.940494
  H       1.443579     -0.871184      0.404115
  H       1.727668      0.790318      0.482427
>
6
Coordinates from ORCA-job n2h4 Relaxed Surface Scan Step 18 E -111.736107303082
  N      -0.034338      0.256368      0.022657
  N       1.021000      0.063016      0.296735
  H      -0.812353      0.357832      0.692697
  H      -0.387324      0.361975     -0.941090
  H       1.444400     -0.871720      0.404327
  H       1.728616      0.790528      0.482674
>
6
Coordinates from ORCA-job n2h4 Relaxed Surface Scan Step 19 E -111.744551263658
  N      -0.039149      0.257260      0.021407
  N       1.025814      0.062136      0.297983
  H      -0.813417      0.357999      0.692891
  H      -0.388160      0.362145     -0.941777
  H       1.445269     -0.872342      0.404553
  H       1.729644      0.790801      0.482943
>
6
Coordinates from ORCA-job n2h4 Relaxed Surface Scan Step 20 E -111.752395217144
  N      -0.043959      0.258156      0.020157
  N       1.030628      0.061257      0.299230
  H      -0.814561      0.358176      0.693137
  H      -0.389042      0.362325     -0.942549
  H       1.446187     -0.873045      0.404791
  H       1.730747      0.791131      0.483233
>
6
Coordinates from ORCA-job n2h4 Relaxed Surface Scan Step 21 E -111.759670129507
  N      -0.048769      0.259054      0.018907
  N       1.035443      0.060379      0.300478
  H      -0.815781      0.358362      0.693430
  H      -0.389969      0.362514     -0.943399
  H       1.447152     -0.873822      0.405042
  H       1.731924      0.791513      0.483542
>
6
Coordinates from ORCA-job n2h4 Relaxed Surface Scan Step 22 E -111.766405445737
  N      -0.053579      0.259954      0.017657
  N       1.040258      0.059502      0.301727
  H      -0.817074      0.358556      0.693765
  H      -0.390937      0.362711     -0.944321
  H       1.448163     -0.874668      0.405304
  H       1.733170      0.791943      0.483869
>
6
Coordinates from ORCA-job n2h4 Relaxed Surface Scan Step 23 E -111.772629152257
  N      -0.058388      0.260858      0.016407
  N       1.045073      0.058626      0.302976
  H      -0.818437      0.358760      0.694139
  H      -0.391948      0.362917     -0.945311
  H       1.449219     -0.875578      0.405576
  H       1.734481      0.792417      0.484213
>
6
Coordinates from ORCA-job n2h4 Relaxed Surface Scan Step 24 E -111.778367816375
  N      -0.063196      0.261768      0.015157
  N       1.049888      0.057751      0.304226
  H      -0.819867      0.358969      0.694548
  H      -0.393000      0.363130     -0.946365
  H       1.450318     -0.876548      0.405860
  H       1.735857      0.792930      0.484574
>
6
Coordinates from ORCA-job n2h4 Relaxed Surface Scan Step 25 E -111.783646634664
  N      -0.068002      0.262688      0.013909
  N       1.054703      0.056878      0.305476
  H      -0.821361      0.359183      0.694988
  H      -0.394092      0.363347     -0.947476
  H       1.451457     -0.877573      0.406153
  H       1.737295      0.793477      0.484950
>
6
Coordinates from ORCA-job n2h4 Relaxed Surface Scan Step 26 E -111.788489504173
  N      -0.072806      0.263625      0.012661
  N       1.059519      0.056008      0.306725
  H      -0.822916      0.359397      0.695456
  H      -0.395223      0.363563     -0.948642
  H       1.452632     -0.878649      0.406456
  H       1.738794      0.794056      0.485344
>
6
Coordinates from ORCA-job n2h4 Relaxed Surface Scan Step 27 E -111.792919101331
  N      -0.077604      0.264590      0.011414
  N       1.064336      0.055143      0.307971
  H      -0.824531      0.359605      0.695950
  H      -0.396396      0.363773     -0.949859
  H       1.453837     -0.879772      0.406768
  H       1.740358      0.794661      0.485756
>
6
Coordinates from ORCA-job n2h4 Relaxed Surface Scan Step 28 E -111.796956937594
  N      -0.082395      0.265602      0.010169
  N       1.069157      0.054287      0.309213
  H      -0.826203      0.359795      0.696465
  H      -0.397612      0.363967     -0.951123
  H       1.455064     -0.880938      0.407088
  H       1.741989      0.795287      0.486188
>
6
Coordinates from ORCA-job n2h4 Relaxed Surface Scan Step 29 E -111.800623492443
  N      -0.087171      0.266693      0.008926
  N       1.073982      0.053448      0.310447
  H      -0.827930      0.359949      0.697001
  H      -0.398873      0.364125     -0.952433
  H       1.456296     -0.882143      0.407414
  H       1.743696      0.795928      0.486646
>
6
Coordinates from ORCA-job n2h4 Relaxed Surface Scan Step 30 E -111.803938286214
  N      -0.091923      0.267922      0.007685
  N       1.078817      0.052639      0.311666
  H      -0.829711      0.360033      0.697555
  H      -0.400185      0.364216     -0.953787
  H       1.457506     -0.883384      0.407744
  H       1.745497      0.796575      0.487137
>
6
Coordinates from ORCA-job n2h4 Relaxed Surface Scan Step 31 E -111.806920245605
  N      -0.096630      0.269407      0.006451
  N       1.083667      0.051884      0.312862
  H      -0.831544      0.359979      0.698128
  H      -0.401555      0.364172     -0.955187
  H       1.458637     -0.884658      0.408068
  H       1.747425      0.797215      0.487677
>
6
Coordinates from ORCA-job n2h4 Relaxed Surface Scan Step 32 E -111.809587590379
  N      -0.101245      0.271414      0.005230
  N       1.088549      0.051240      0.314008
  H      -0.833415      0.359633      0.698736
  H      -0.402983      0.363844     -0.956641
  H       1.459548     -0.885963      0.408367
  H       1.749546      0.797832      0.488299
>
6
Coordinates from ORCA-job n2h4 Relaxed Surface Scan Step 33 E -111.811947691455
  N      -0.105638      0.274699      0.004042
  N       1.093503      0.050866      0.315039
  H      -0.835230      0.358544      0.699454
  H      -0.404412      0.362791     -0.958181
  H       1.459780     -0.887313      0.408564
  H       1.751996      0.798413      0.489083
>
6
Coordinates from ORCA-job n2h4 Relaxed Surface Scan Step 34 E -111.818035606578
  N      -0.059427      0.462476     -0.023401
  N       1.145467      0.093129      0.125285
  H      -0.736175      0.237241      0.706531
  H      -0.462785      0.260100     -0.931401
  H       1.331542     -0.849203      0.470014
  H       1.741378      0.754256      0.610972
>
6
Coordinates from ORCA-job n2h4 Relaxed Surface Scan Step 35 E -111.820456148664
  N      -0.062258      0.470137     -0.024969
  N       1.151475      0.093321      0.119573
  H      -0.732988      0.234186      0.706741
  H      -0.464708      0.255892     -0.930337
  H       1.327645     -0.847943      0.471597
  H       1.740834      0.752406      0.615395
>
6
Coordinates from ORCA-job n2h4 Relaxed Surface Scan Step 36 E -111.822650432960
  N      -0.065180      0.477320     -0.026274
  N       1.157379      0.093204      0.114359
  H      -0.730253      0.230818      0.706717
  H      -0.466489      0.252585     -0.929356
  H       1.323998     -0.846746      0.473624
  H       1.740544      0.750819      0.618930
>
6
Coordinates from ORCA-job n2h4 Relaxed Surface Scan Step 37 E -111.824629189536
  N      -0.068194      0.484187     -0.027490
  N       1.163194      0.092973      0.109451
  H      -0.727685      0.227491      0.706685
  H      -0.468154      0.249596     -0.928473
  H       1.320510     -0.845610      0.475681
  H       1.740329      0.749362      0.622146
>
6
Coordinates from ORCA-job n2h4 Relaxed Surface Scan Step 38 E -111.826413003712
  N      -0.071291      0.490773     -0.028629
  N       1.168931      0.092641      0.104818
  H      -0.725359      0.224296      0.706570
  H      -0.469789      0.246846     -0.927622
  H       1.317308     -0.844499      0.477724
  H       1.740199      0.747943      0.625140
>
6
Coordinates from ORCA-job n2h4 Relaxed Surface Scan Step 39 E -111.828008018385
  N      -0.074629      0.496635     -0.029587
  N       1.174494      0.092053      0.100909
  H      -0.723217      0.221354      0.706741
  H      -0.470905      0.244641     -0.927115
  H       1.314256     -0.843731      0.479559
  H       1.740002      0.747047      0.627493
>
6
Coordinates from ORCA-job n2h4 Relaxed Surface Scan Step 40 E -111.829423065902
  N      -0.077841      0.502837     -0.030583
  N       1.180108      0.091549      0.096648
  H      -0.721142      0.218153      0.706545
  H      -0.472421      0.242352     -0.926363
  H       1.311291     -0.842652      0.481716
  H       1.740004      0.745761      0.630037
>
6
Coordinates from ORCA-job n2h4 Relaxed Surface Scan Step 41 E -111.830677707952
  N      -0.081133      0.508780     -0.031506
  N       1.185653      0.090948      0.092644
  H      -0.719317      0.215037      0.706283
  H      -0.473928      0.240319     -0.925676
  H       1.308593     -0.841619      0.483902
  H       1.740132      0.744535      0.632353
>
6
Coordinates from ORCA-job n2h4 Relaxed Surface Scan Step 42 E -111.831762932617
  N      -0.084493      0.514512     -0.032351
  N       1.191134      0.090251      0.088846
  H      -0.717648      0.211917      0.705984
  H      -0.475379      0.238546     -0.925058
  H       1.306039     -0.840617      0.486156
  H       1.740348      0.743391      0.634423
>
6
Coordinates from ORCA-job n2h4 Relaxed Surface Scan Step 43 E -111.832697538195
  N      -0.087915      0.520055     -0.033115
  N       1.196554      0.089459      0.085233
  H      -0.716129      0.208768      0.705639
  H      -0.476782      0.237030     -0.924506
  H       1.303613     -0.839635      0.488499
  H       1.740659      0.742323      0.636250
>
6
Coordinates from ORCA-job n2h4 Relaxed Surface Scan Step 44 E -111.833489961012
  N      -0.091395      0.525424     -0.033797
  N       1.201916      0.088570      0.081789
  H      -0.714754      0.205572      0.705245
  H      -0.478140      0.235775     -0.924017
  H       1.301305     -0.838669      0.490949
  H       1.741068      0.741328      0.637832
>
6
Coordinates from ORCA-job n2h4 Relaxed Surface Scan Step 45 E -111.834148184340
  N      -0.094930      0.530630     -0.034395
  N       1.207222      0.087585      0.078502
  H      -0.713518      0.202312      0.704798
  H      -0.479457      0.234781     -0.923591
  H       1.299106     -0.837712      0.493517
  H       1.741577      0.740404      0.639170
>
6
Coordinates from ORCA-job n2h4 Relaxed Surface Scan Step 46 E -111.834679852015
  N      -0.098517      0.535685     -0.034906
  N       1.212472      0.086502      0.075360
  H      -0.712418      0.198974      0.704295
  H      -0.480735      0.234051     -0.923229
  H       1.297009     -0.836760      0.496217
  H       1.742189      0.739549      0.640263
>
6
Coordinates from ORCA-job n2h4 Relaxed Surface Scan Step 47 E -111.835092106058
  N      -0.102153      0.540595     -0.035326
  N       1.217669      0.085319      0.072355
  H      -0.711454      0.195541      0.703730
  H      -0.481977      0.233590     -0.922928
  H       1.295007     -0.835807      0.499064
  H       1.742908      0.738762      0.641106
>
6
Coordinates from ORCA-job n2h4 Relaxed Surface Scan Step 48 E -111.835391804124
  N      -0.105838      0.545372     -0.035653
  N       1.222811      0.084033      0.069475
  H      -0.710620      0.191998      0.703099
  H      -0.483183      0.233403     -0.922687
  H       1.293094     -0.834848      0.502071
  H       1.743736      0.738042      0.641696
>
6
Coordinates from ORCA-job n2h4 Relaxed Surface Scan Step 49 E -111.835585464648
  N      -0.109568      0.550020     -0.035881
  N       1.227899      0.082639      0.066715
  H      -0.709916      0.188327      0.702396
  H      -0.484354      0.233500     -0.922508
  H       1.291261     -0.833875      0.505255
  H       1.744678      0.737388      0.642023
>
6
Coordinates from ORCA-job n2h4 Relaxed Surface Scan Step 50 E -111.835679502856
  N      -0.113341      0.554549     -0.036005
  N       1.232932      0.081135      0.064064
  H      -0.709340      0.184510      0.701614
  H      -0.485490      0.233889     -0.922387
  H       1.289503     -0.832881      0.508633
  H       1.745736      0.736799      0.642081
>
6
Coordinates from ORCA-job n2h4 Relaxed Surface Scan Step 51 E -111.835673485381
  N      -0.117158      0.558959     -0.036018
  N       1.237910      0.079513      0.061519
  H      -0.708895      0.180530      0.700746
  H      -0.486591      0.234584     -0.922328
  H       1.287819     -0.831863      0.512224
  H       1.746916      0.736277      0.641857
>
6
Coordinates from ORCA-job n2h4 Relaxed Surface Scan Step 52 E -111.835585397937
  N      -0.121016      0.563256     -0.035912
  N       1.242830      0.077767      0.059073
  H      -0.708582      0.176366      0.699782
  H      -0.487657      0.235600     -0.922328
  H       1.286201     -0.830809      0.516047
  H       1.748223      0.735821      0.641338
>
6
Coordinates from ORCA-job n2h4 Relaxed Surface Scan Step 53 E -111.835414500400
  N      -0.124914      0.567444     -0.035680
  N       1.247690      0.075890      0.056722
  H      -0.708400      0.171996      0.698715
  H      -0.488684      0.236951     -0.922388
  H       1.284647     -0.829712      0.520123
  H       1.749661      0.735430      0.640508
>
6
Coordinates from ORCA-job n2h4 Relaxed Surface Scan Step 54 E -111.835165881745
  N      -0.128853      0.571526     -0.035310
  N       1.252489      0.073873      0.054458
  H      -0.708352      0.167395      0.697531
  H      -0.489672      0.238661     -0.922506
  H       1.283151     -0.828563      0.524481
  H       1.751237      0.735107      0.639347
>
6
Coordinates from ORCA-job n2h4 Relaxed Surface Scan Step 55 E -111.834844404459
  N      -0.132831      0.575504     -0.034791
  N       1.257222      0.071705      0.052280
  H      -0.708444      0.162536      0.696218
  H      -0.490615      0.240753     -0.922684
  H       1.281711     -0.827349      0.529147
  H       1.752957      0.734850      0.637831
>
6
Coordinates from ORCA-job n2h4 Relaxed Surface Scan Step 56 E -111.834454635953
  N      -0.136848      0.579379     -0.034109
  N       1.261884      0.069372      0.050182
  H      -0.708680      0.157385      0.694759
  H      -0.491511      0.243259     -0.922919
  H       1.280323     -0.826058      0.534157
  H       1.754832      0.734663      0.635930
>
6
Coordinates from ORCA-job n2h4 Relaxed Surface Scan Step 57 E -111.834000965104
  N      -0.140906      0.583149     -0.033248
  N       1.266471      0.066860      0.048163
  H      -0.709067      0.151909      0.693136
  H      -0.492354      0.246213     -0.923212
  H       1.278987     -0.824675      0.539549
  H       1.756869      0.734545      0.633612
>
6
Coordinates from ORCA-job n2h4 Relaxed Surface Scan Step 58 E -111.833487492507
  N      -0.144998      0.586826     -0.032227
  N       1.270989      0.064188      0.046215
  H      -0.709582      0.146167      0.691364
  H      -0.493148      0.249543     -0.923548
  H       1.277702     -0.823205      0.545254
  H       1.759037      0.734481      0.630941
>
6
Coordinates from ORCA-job n2h4 Relaxed Surface Scan Step 59 E -111.832918180534
  N      -0.149127      0.590407     -0.031019
  N       1.275429      0.061332      0.044335
  H      -0.710237      0.140094      0.689413
  H      -0.493883      0.253314     -0.923926
  H       1.276462     -0.821626      0.551344
  H       1.761355      0.734477      0.627853
>
6
Coordinates from ORCA-job n2h4 Relaxed Surface Scan Step 60 E -111.832300865325
  N      -0.153390      0.593725     -0.028834
  N       1.279507      0.057531      0.042580
  H      -0.711683      0.131487      0.686289
  H      -0.494550      0.259844     -0.924543
  H       1.275271     -0.819275      0.560236
  H       1.764845      0.734688      0.622273
>
6
Coordinates from ORCA-job n2h4 Relaxed Surface Scan Step 61 E -111.831627916690
  N      -0.157532      0.597199     -0.027821
  N       1.283989      0.054848      0.040837
  H      -0.712210      0.126479      0.684712
  H      -0.495144      0.262777     -0.924854
  H       1.274222     -0.817993      0.565244
  H       1.766675      0.734689      0.619882
>
6
Coordinates from ORCA-job n2h4 Relaxed Surface Scan Step 62 E -111.830915876326
  N      -0.161928      0.600216     -0.024631
  N       1.287677      0.050076      0.039244
  H      -0.714262      0.115662      0.680510
  H      -0.495497      0.271792     -0.925619
  H       1.273026     -0.814879      0.576553
  H       1.770985      0.735132      0.611945
>
6
Coordinates from ORCA-job n2h4 Relaxed Surface Scan Step 63 E -111.830161319138
  N      -0.166279      0.603263     -0.022054
  N       1.291562      0.045886      0.037695
  H      -0.715872      0.106882      0.677092
  H      -0.495809      0.278863     -0.926180
  H       1.272009     -0.812331      0.585715
  H       1.774389      0.735437      0.605732
>
6
Coordinates from ORCA-job n2h4 Relaxed Surface Scan Step 64 E -111.829363870613
  N      -0.170685      0.606169     -0.019035
  N       1.295271      0.041268      0.036239
  H      -0.717767      0.097252      0.673183
  H      -0.495962      0.286944     -0.926755
  H       1.271064     -0.809434      0.595834
  H       1.778080      0.735801      0.598534
>
6
Coordinates from ORCA-job n2h4 Relaxed Surface Scan Step 65 E -111.828535393774
  N      -0.175183      0.608873     -0.015313
  N       1.298697      0.035976      0.034887
  H      -0.720069      0.086154      0.668451
  H      -0.495863      0.296694     -0.927328
  H       1.270161     -0.805948      0.607579
  H       1.782256      0.736252      0.589724
>
6
Coordinates from ORCA-job n2h4 Relaxed Surface Scan Step 66 E -111.827677192237
  N      -0.179780      0.611348     -0.010795
  N       1.301803      0.029922      0.033655
  H      -0.722813      0.073453      0.662761
  H      -0.495454      0.308278     -0.927843
  H       1.269327     -0.801758      0.621107
  H       1.786916      0.736758      0.579115
>
6
Coordinates from ORCA-job n2h4 Relaxed Surface Scan Step 67 E -111.826787714224
  N      -0.184515      0.613503     -0.005135
  N       1.304446      0.022776      0.032586
  H      -0.726176      0.058432      0.655649
  H      -0.494585      0.322498     -0.928224
  H       1.268590     -0.796510      0.637215
  H       1.792241      0.737300      0.565909
>
6
Coordinates from ORCA-job n2h4 Relaxed Surface Scan Step 68 E -111.825871308618
  N      -0.189653      0.614740      0.003293
  N       1.305969      0.012956      0.032063
  H      -0.731495      0.037698      0.644996
  H      -0.492671      0.343443     -0.928340
  H       1.268459     -0.788793      0.659846
  H       1.799391      0.737955      0.546143
>
6
Coordinates from ORCA-job n2h4 Relaxed Surface Scan Step 69 E -111.824939371955
  N      -0.195330      0.614712      0.016618
  N       1.305520     -0.001519      0.032126
  H      -0.738962      0.006637      0.627655
  H      -0.488655      0.375722     -0.927226
  H       1.268382     -0.775780      0.693777
  H       1.809046      0.738228      0.515051
>
6
Coordinates from ORCA-job n2h4 Relaxed Surface Scan Step 70 E -111.824803409401
  N      -0.241652      0.511675      0.206873
  N       1.228238     -0.192571      0.112654
  H      -0.835392     -0.316685      0.266163
  H      -0.365425      0.803220     -0.763640
  H       1.351895     -0.483109      1.083483
  H       1.822336      0.635470      0.052467
>
6
Coordinates from ORCA-job n2h4 Relaxed Surface Scan Step 71 E -111.823943762792
  N      -0.246063      0.514107      0.207505
  N       1.232638     -0.194995      0.112032
  H      -0.836896     -0.316556      0.265607
  H      -0.366564      0.803071     -0.764314
  H       1.353406     -0.483236      1.084028
  H       1.823479      0.635609      0.053142
>
6
Coordinates from ORCA-job n2h4 Relaxed Surface Scan Step 72 E -111.823049950828
  N      -0.250503      0.516483      0.208012
  N       1.237093     -0.197329      0.111484
  H      -0.838292     -0.316528      0.265098
  H      -0.367944      0.803080     -0.764985
  H       1.354765     -0.483356      1.084623
  H       1.824880      0.635649      0.053769
>
6
Coordinates from ORCA-job n2h4 Relaxed Surface Scan Step 73 E -111.822125255409
  N      -0.254936      0.518868      0.208538
  N       1.241542     -0.199675      0.110922
  H      -0.839692     -0.316486      0.264542
  H      -0.369362      0.803069     -0.765638
  H       1.356151     -0.483431      1.085210
  H       1.826297      0.635655      0.054427
>
6
Coordinates from ORCA-job n2h4 Relaxed Surface Scan Step 74 E -111.821171356366
  N      -0.259376      0.521239      0.209052
  N       1.245995     -0.202015      0.110379
  H      -0.841108     -0.316438      0.263969
  H      -0.370797      0.803068     -0.766281
  H       1.357558     -0.483498      1.085799
  H       1.827727      0.635644      0.055081
>
6
Coordinates from ORCA-job n2h4 Relaxed Surface Scan Step 75 E -111.820190192223
  N      -0.263825      0.523593      0.209553
  N       1.250455     -0.204345      0.109856
  H      -0.842535     -0.316385      0.263389
  H      -0.372240      0.803078     -0.766914
  H       1.358980     -0.483563      1.086391
  H       1.829165      0.635621      0.055726
>
6
Coordinates from ORCA-job n2h4 Relaxed Surface Scan Step 76 E -111.819183631128
  N      -0.268282      0.525931      0.210039
  N       1.254920     -0.206665      0.109354
  H      -0.843974     -0.316328      0.262799
  H      -0.373693      0.803101     -0.767538
  H       1.360416     -0.483624      1.086984
  H       1.830612      0.635586      0.056362
>
6
Coordinates from ORCA-job n2h4 Relaxed Surface Scan Step 77 E -111.818153452816
  N      -0.272748      0.528256      0.210508
  N       1.259392     -0.208973      0.108870
  H      -0.845423     -0.316264      0.262209
  H      -0.375156      0.803130     -0.768157
  H       1.361865     -0.483690      1.087576
  H       1.832070      0.635541      0.056994
>
6
Coordinates from ORCA-job n2h4 Relaxed Surface Scan Step 78 E -111.817101313846
  N      -0.277222      0.530563      0.210961
  N       1.263871     -0.211270      0.108406
  H      -0.846884     -0.316195      0.261614
  H      -0.376628      0.803171     -0.768768
  H       1.363327     -0.483755      1.088168
  H       1.833536      0.635486      0.057619
>
6
Coordinates from ORCA-job n2h4 Relaxed Surface Scan Step 79 E -111.816028682234
  N      -0.281704      0.532857      0.211396
  N       1.268357     -0.213554      0.107961
  H      -0.848358     -0.316120      0.261018
  H      -0.378111      0.803220     -0.769375
  H       1.364802     -0.483825      1.088759
  H       1.835015      0.635422      0.058241
>
6
Coordinates from ORCA-job n2h4 Relaxed Surface Scan Step 80 E -111.814936997014
  N      -0.286194      0.535136      0.211814
  N       1.272851     -0.215824      0.107537
  H      -0.849844     -0.316037      0.260421
  H      -0.379607      0.803277     -0.769978
  H       1.366290     -0.483899      1.089348
  H       1.836505      0.635348      0.058858
>
6
Coordinates from ORCA-job n2h4 Relaxed Surface Scan Step 81 E -111.813827791820
  N      -0.290693      0.537399      0.212214
  N       1.277352     -0.218083      0.107132
  H      -0.851344     -0.315948      0.259821
  H      -0.381115      0.803344     -0.770575
  H       1.367794     -0.483977      1.089938
  H       1.838005      0.635265      0.059470
>
6
Coordinates from ORCA-job n2h4 Relaxed Surface Scan Step 82 E -111.812702521727
  N      -0.295201      0.539648      0.212596
  N       1.281861     -0.220328      0.106747
  H      -0.852855     -0.315853      0.259222
  H      -0.382634      0.803419     -0.771169
  H       1.369311     -0.484060      1.090525