2
Coordinates from ORCA-job co_scan Relaxed Surface Scan Step 1 E -112.479848627115
  O       0.701536      1.060606      0.000000
  C      -0.098464      1.060606      0.000000
>
2
Coordinates from ORCA-job co_scan Relaxed Surface Scan Step 2 E -112.510962509625
  O       0.704551      1.060606      0.000000
  C      -0.101479      1.060606      0.000000
>
2
Coordinates from ORCA-job co_scan Relaxed Surface Scan Step 3 E -112.540760482504
  O       0.707566      1.060606      0.000000
  C      -0.104494      1.060606      0.000000
>
2
Coordinates from ORCA-job co_scan Relaxed Surface Scan Step 4 E -112.569290822523
  O       0.710581      1.060606      0.000000
  C      -0.107509      1.060606      0.000000
>
2
Coordinates from ORCA-job co_scan Relaxed Surface Scan Step 5 E -112.596599989250
  O       0.713596      1.060606      0.000000
  C      -0.110524      1.060606      0.000000
>
2
Coordinates from ORCA-job co_scan Relaxed Surface Scan Step 6 E -112.622732836399
  O       0.716611      1.060606      0.000000
  C      -0.113539      1.060606      0.000000
>
2
Coordinates from ORCA-job co_scan Relaxed Surface Scan Step 7 E -112.647732591340
  O       0.719626      1.060606      0.000000
  C      -0.116555      1.060606      0.000000
>
2
Coordinates from ORCA-job co_scan Relaxed Surface Scan Step 8 E -112.671640851080
  O       0.722641      1.060606      0.000000
  C      -0.119570      1.060606      0.000000
>
2
Coordinates from ORCA-job co_scan Relaxed Surface Scan Step 9 E -112.694497769561
  O       0.725657      1.060606      0.000000
  C      -0.122585      1.060606      0.000000
>
2
Coordinates from ORCA-job co_scan Relaxed Surface Scan Step 10 E -112.716342041415
  O       0.728672      1.060606      0.000000
  C      -0.125600      1.060606      0.000000
>
2
Coordinates from ORCA-job co_scan Relaxed Surface Scan Step 11 E -112.737210900728
  O       0.731687      1.060606      0.000000
  C      -0.128615      1.060606      0.000000
>
2
Coordinates from ORCA-job co_scan Relaxed Surface Scan Step 12 E -112.757140309014
  O       0.734702      1.060606      0.000000
  C      -0.131630      1.060606      0.000000
>
2
Coordinates from ORCA-job co_scan Relaxed Surface Scan Step 13 E -112.776164835987
  O       0.737717      1.060606      0.000000
  C      -0.134645      1.060606      0.000000
>
2
Coordinates from ORCA-job co_scan Relaxed Surface Scan Step 14 E -112.794317863119
  O       0.740732      1.060606      0.000000
  C      -0.137660      1.060606      0.000000
>
2
Coordinates from ORCA-job co_scan Relaxed Surface Scan Step 15 E -112.811631552443
  O       0.743747      1.060606      0.000000
  C      -0.140675      1.060606      0.000000
>
2
Coordinates from ORCA-job co_scan Relaxed Surface Scan Step 16 E -112.828136854040
  O       0.746762      1.060606      0.000000
  C      -0.143690      1.060606      0.000000
>
2
Coordinates from ORCA-job co_scan Relaxed Surface Scan Step 17 E -112.843863639724
  O       0.749777      1.060606      0.000000
  C      -0.146705      1.060606      0.000000
>
2
Coordinates from ORCA-job co_scan Relaxed Surface Scan Step 18 E -112.858840695844
  O       0.752792      1.060606      0.000000
  C      -0.149720      1.060606      0.000000
>
2
Coordinates from ORCA-job co_scan Relaxed Surface Scan Step 19 E -112.873095726826
  O       0.755807      1.060606      0.000000
  C      -0.152735      1.060606      0.000000
>
2
Coordinates from ORCA-job co_scan Relaxed Surface Scan Step 20 E -112.886655472469
  O       0.758822      1.060606      0.000000
  C      -0.155750      1.060606      0.000000
>
2
Coordinates from ORCA-job co_scan Relaxed Surface Scan Step 21 E -112.899545703058
  O       0.761837      1.060606      0.000000
  C      -0.158766      1.060606      0.000000
>
2
Coordinates from ORCA-job co_scan Relaxed Surface Scan Step 22 E -112.911791223922
  O       0.764853      1.060606      0.000000
  C      -0.161781      1.060606      0.000000
>
2
Coordinates from ORCA-job co_scan Relaxed Surface Scan Step 23 E -112.923415977991
  O       0.767868      1.060606      0.000000
  C      -0.164796      1.060606      0.000000
>
2
Coordinates from ORCA-job co_scan Relaxed Surface Scan Step 24 E -112.934443042662
  O       0.770883      1.060606      0.000000
  C      -0.167811      1.060606      0.000000
>
2
Coordinates from ORCA-job co_scan Relaxed Surface Scan Step 25 E -112.944894635380
  O       0.773898      1.060606      0.000000
  C      -0.170826      1.060606      0.000000
>
2
Coordinates from ORCA-job co_scan Relaxed Surface Scan Step 26 E -112.954792202609
  O       0.776913      1.060606      0.000000
  C      -0.173841      1.060606      0.000000
>
2
Coordinates from ORCA-job co_scan Relaxed Surface Scan Step 27 E -112.964156418376
  O       0.779928      1.060606      0.000000
  C      -0.176856      1.060606      0.000000
>
2
Coordinates from ORCA-job co_scan Relaxed Surface Scan Step 28 E -112.973007190509
  O       0.782943      1.060606      0.000000
  C      -0.179871      1.060606      0.000000
>
2
Coordinates from ORCA-job co_scan Relaxed Surface Scan Step 29 E -112.981363737560
  O       0.785958      1.060606      0.000000
  C      -0.182886      1.060606      0.000000
>
2
Coordinates from ORCA-job co_scan Relaxed Surface Scan Step 30 E -112.989244588676
  O       0.788973      1.060606      0.000000
  C      -0.185901      1.060606      0.000000
>
2
Coordinates from ORCA-job co_scan Relaxed Surface Scan Step 31 E -112.996667590389
  O       0.791988      1.060606      0.000000
  C      -0.188916      1.060606      0.000000
>
2
Coordinates from ORCA-job co_scan Relaxed Surface Scan Step 32 E -113.003649972713
  O       0.795003      1.060606      0.000000
  C      -0.191931      1.060606      0.000000
>
2
Coordinates from ORCA-job co_scan Relaxed Surface Scan Step 33 E -113.010208350168
  O       0.798018      1.060606      0.000000
  C      -0.194946      1.060606      0.000000
>
2
Coordinates from ORCA-job co_scan Relaxed Surface Scan Step 34 E -113.016358729057
  O       0.801033      1.060606      0.000000
  C      -0.197962      1.060606      0.000000
>
2
Coordinates from ORCA-job co_scan Relaxed Surface Scan Step 35 E -113.022116568709
  O       0.804049      1.060606      0.000000
  C      -0.200977      1.060606      0.000000
>
2
Coordinates from ORCA-job co_scan Relaxed Surface Scan Step 36 E -113.027496759215
  O       0.807064      1.060606      0.000000
  C      -0.203992      1.060606      0.000000
>
2
Coordinates from ORCA-job co_scan Relaxed Surface Scan Step 37 E -113.032513677815
  O       0.810079      1.060606      0.000000
  C      -0.207007      1.060606      0.000000
>
2
Coordinates from ORCA-job co_scan Relaxed Surface Scan Step 38 E -113.037181191763
  O       0.813094      1.060606      0.000000
  C      -0.210022      1.060606      0.000000
>
2
Coordinates from ORCA-job co_scan Relaxed Surface Scan Step 39 E -113.041512666085
  O       0.816109      1.060606      0.000000
  C      -0.213037      1.060606      0.000000
>
2
Coordinates from ORCA-job co_scan Relaxed Surface Scan Step 40 E -113.045521006039
  O       0.819124      1.060606      0.000000
  C      -0.216052      1.060606      0.000000
>
2
Coordinates from ORCA-job co_scan Relaxed Surface Scan Step 41 E -113.049218660839
  O       0.822139      1.060606      0.000000
  C      -0.219067      1.060606      0.000000
>
2
Coordinates from ORCA-job co_scan Relaxed Surface Scan Step 42 E -113.052617631658
  O       0.825154      1.060606      0.000000
  C      -0.222082      1.060606      0.000000
>
2
Coordinates from ORCA-job co_scan Relaxed Surface Scan Step 43 E -113.055729507093
  O       0.828169      1.060606      0.000000
  C      -0.225097      1.060606      0.000000
>
2
Coordinates from ORCA-job co_scan Relaxed Surface Scan Step 44 E -113.058565467472
  O       0.831184      1.060606      0.000000
  C      -0.228112      1.060606      0.000000
>
2
Coordinates from ORCA-job co_scan Relaxed Surface Scan Step 45 E -113.061136293268
  O       0.834199      1.060606      0.000000
  C      -0.231127      1.060606      0.000000
>
2
Coordinates from ORCA-job co_scan Relaxed Surface Scan Step 46 E -113.063452394128
  O       0.837214      1.060606      0.000000
  C      -0.234142      1.060606      0.000000
>
2
Coordinates from ORCA-job co_scan Relaxed Surface Scan Step 47 E -113.065523813971
  O       0.840229      1.060606      0.000000
  C      -0.237158      1.060606      0.000000
>
2
Coordinates from ORCA-job co_scan Relaxed Surface Scan Step 48 E -113.067360239556
  O       0.843244      1.060606      0.000000
  C      -0.240173      1.060606      0.000000
>
2
Coordinates from ORCA-job co_scan Relaxed Surface Scan Step 49 E -113.068971023930
  O       0.846260      1.060606      0.000000
  C      -0.243188      1.060606      0.000000
>
2
Coordinates from ORCA-job co_scan Relaxed Surface Scan Step 50 E -113.070365192091
  O       0.849275      1.060606      0.000000
  C      -0.246203      1.060606      0.000000
>
2
Coordinates from ORCA-job co_scan Relaxed Surface Scan Step 51 E -113.071551449808
  O       0.852290      1.060606      0.000000
  C      -0.249218      1.060606      0.000000
>
2
Coordinates from ORCA-job co_scan Relaxed Surface Scan Step 52 E -113.072538202051
  O       0.855305      1.060606      0.000000
  C      -0.252233      1.060606      0.000000
>
2
Coordinates from ORCA-job co_scan Relaxed Surface Scan Step 53 E -113.073333559194
  O       0.858320      1.060606      0.000000
  C      -0.255248      1.060606      0.000000
>
2
Coordinates from ORCA-job co_scan Relaxed Surface Scan Step 54 E -113.073945345988
  O       0.861335      1.060606      0.000000
  C      -0.258263      1.060606      0.000000
>
2
Coordinates from ORCA-job co_scan Relaxed Surface Scan Step 55 E -113.074381037729
  O       0.864350      1.060606      0.000000
  C      -0.261278      1.060606      0.000000
>
2
Coordinates from ORCA-job co_scan Relaxed Surface Scan Step 56 E -113.074648072480
  O       0.867365      1.060606      0.000000
  C      -0.264293      1.060606      0.000000
>
2
Coordinates from ORCA-job co_scan Relaxed Surface Scan Step 57 E -113.074753410406
  O       0.870380      1.060606      0.000000
  C      -0.267308      1.060606      0.000000
>
2
Coordinates from ORCA-job co_scan Relaxed Surface Scan Step 58 E -113.074703838299
  O       0.873395      1.060606      0.000000
  C      -0.270323      1.060606      0.000000
>
2
Coordinates from ORCA-job co_scan Relaxed Surface Scan Step 59 E -113.074505904381
  O       0.876410      1.060606      0.000000
  C      -0.273338      1.060606      0.000000
>
2
Coordinates from ORCA-job co_scan Relaxed Surface Scan Step 60 E -113.074165927496
  O       0.879425      1.060606      0.000000
  C      -0.276353      1.060606      0.000000
>
2
Coordinates from ORCA-job co_scan Relaxed Surface Scan Step 61 E -113.073690003351
  O       0.882440      1.060606      0.000000
  C      -0.279369      1.060606      0.000000
>
2
Coordinates from ORCA-job co_scan Relaxed Surface Scan Step 62 E -113.073084014317
  O       0.885456      1.060606      0.000000
  C      -0.282384      1.060606      0.000000
>
2
Coordinates from ORCA-job co_scan Relaxed Surface Scan Step 63 E -113.072353633901
  O       0.888471      1.060606      0.000000
  C      -0.285399      1.060606      0.000000
>
2
Coordinates from ORCA-job co_scan Relaxed Surface Scan Step 64 E -113.071504334416
  O       0.891486      1.060606      0.000000
  C      -0.288414      1.060606      0.000000
>
2
Coordinates from ORCA-job co_scan Relaxed Surface Scan Step 65 E -113.070541396285
  O       0.894501      1.060606      0.000000
  C      -0.291429      1.060606      0.000000
>
2
Coordinates from ORCA-job co_scan Relaxed Surface Scan Step 66 E -113.069469909759
  O       0.897516      1.060606      0.000000
  C      -0.294444      1.060606      0.000000
>
2
Coordinates from ORCA-job co_scan Relaxed Surface Scan Step 67 E -113.068294783405
  O       0.900531      1.060606      0.000000
  C      -0.297459      1.060606      0.000000
>
2
Coordinates from ORCA-job co_scan Relaxed Surface Scan Step 68 E -113.067020751960
  O       0.903546      1.060606      0.000000
  C      -0.300474      1.060606      0.000000
>
2
Coordinates from ORCA-job co_scan Relaxed Surface Scan Step 69 E -113.065652377526
  O       0.906561      1.060606      0.000000
  C      -0.303489      1.060606      0.000000
>
2
Coordinates from ORCA-job co_scan Relaxed Surface Scan Step 70 E -113.064194056550
  O       0.909576      1.060606      0.000000
  C      -0.306504      1.060606      0.000000
>
2
Coordinates from ORCA-job co_scan Relaxed Surface Scan Step 71 E -113.062650029321
  O       0.912591      1.060606      0.000000
  C      -0.309519      1.060606      0.000000
>
2
Coordinates from ORCA-job co_scan Relaxed Surface Scan Step 72 E -113.061024377319
  O       0.915606      1.060606      0.000000
  C      -0.312534      1.060606      0.000000
>
2
Coordinates from ORCA-job co_scan Relaxed Surface Scan Step 73 E -113.059321031443
  O       0.918621      1.060606      0.000000
  C      -0.315549      1.060606      0.000000
>
2
Coordinates from ORCA-job co_scan Relaxed Surface Scan Step 74 E -113.057543781221
  O       0.921636      1.060606      0.000000
  C      -0.318565      1.060606      0.000000
>
2
Coordinates from ORCA-job co_scan Relaxed Surface Scan Step 75 E -113.055696270197
  O       0.924652      1.060606      0.000000
  C      -0.321580      1.060606      0.000000
>
2
Coordinates from ORCA-job co_scan Relaxed Surface Scan Step 76 E -113.053782004335
  O       0.927667      1.060606      0.000000
  C      -0.324595      1.060606      0.000000
>
2
Coordinates from ORCA-job co_scan Relaxed Surface Scan Step 77 E -113.051804361120
  O       0.930682      1.060606      0.000000
  C      -0.327610      1.060606      0.000000
>
2
Coordinates from ORCA-job co_scan Relaxed Surface Scan Step 78 E -113.049766583326
  O       0.933697      1.060606      0.000000
  C      -0.330625      1.060606      0.000000
>
2
Coordinates from ORCA-job co_scan Relaxed Surface Scan Step 79 E -113.047671787371
  O       0.936712      1.060606      0.000000
  C      -0.333640      1.060606      0.000000
>
2
Coordinates from ORCA-job co_scan Relaxed Surface Scan Step 80 E -113.045522972648
  O       0.939727      1.060606      0.000000
  C      -0.336655      1.060606      0.000000
>
2
Coordinates from ORCA-job co_scan Relaxed Surface Scan Step 81 E -113.043323013537
  O       0.942742      1.060606      0.000000
  C      -0.339670      1.060606      0.000000
>
2
Coordinates from ORCA-job co_scan Relaxed Surface Scan Step 82 E -113.041074667944
  O       0.945757      1.060606      0.000000
  C      -0.342685      1.060606      0.000000
>
2
Coordinates from ORCA-job co_scan Relaxed Surface Scan Step 83 E -113.038780586414
  O       0.948772      1.060606      0.000000
  C      -0.345700      1.060606      0.000000
>
2
Coordinates from ORCA-job co_scan Relaxed Surface Scan Step 84 E -113.036443300903
  O       0.951787      1.060606      0.000000
  C      -0.348715      1.060606      0.000000
>
2
Coordinates from ORCA-job co_scan Relaxed Surface Scan Step 85 E -113.034065243549
  O       0.954802      1.060606      0.000000
  C      -0.351730      1.060606      0.000000
>
2
Coordinates from ORCA-job co_scan Relaxed Surface Scan Step 86 E -113.031648734989
  O       0.957817      1.060606      0.000000
  C      -0.354745      1.060606      0.000000
>
2
Coordinates from ORCA-job co_scan Relaxed Surface Scan Step 87 E -113.029195992904
  O       0.960832      1.060606      0.000000
  C      -0.357761      1.060606      0.000000
>
2
Coordinates from ORCA-job co_scan Relaxed Surface Scan Step 88 E -113.026709140394
  O       0.963848      1.060606      0.000000
  C      -0.360776      1.060606      0.000000
>
2
Coordinates from ORCA-job co_scan Relaxed Surface Scan Step 89 E -113.024190195623
  O       0.966863      1.060606      0.000000
  C      -0.363791      1.060606      0.000000
>
2
Coordinates from ORCA-job co_scan Relaxed Surface Scan Step 90 E -113.021641079792
  O       0.969878      1.060606      0.000000
  C      -0.366806      1.060606      0.000000
>
2
Coordinates from ORCA-job co_scan Relaxed Surface Scan Step 91 E -113.019063625979
  O       0.972893      1.060606      0.000000
  C      -0.369821      1.060606      0.000000
>
2
Coordinates from ORCA-job co_scan Relaxed Surface Scan Step 92 E -113.016459567329
  O       0.975908      1.060606      0.000000
  C      -0.372836      1.060606      0.000000
>
2
Coordinates from ORCA-job co_scan Relaxed Surface Scan Step 93 E -113.013830545211
  O       0.978923      1.060606      0.000000
  C      -0.375851      1.060606      0.000000
>
2
Coordinates from ORCA-job co_scan Relaxed Surface Scan Step 94 E -113.011178117672
  O       0.981938      1.060606      0.000000
  C      -0.378866      1.060606      0.000000
>
2
Coordinates from ORCA-job co_scan Relaxed Surface Scan Step 95 E -113.008503746884
  O       0.984953      1.060606      0.000000
  C      -0.381881      1.060606      0.000000
>
2
Coordinates from ORCA-job co_scan Relaxed Surface Scan Step 96 E -113.005808806968
  O       0.987968      1.060606      0.000000
  C      -0.384896      1.060606      0.000000
>
2
Coordinates from ORCA-job co_scan Relaxed Surface Scan Step 97 E -113.003094592461
  O       0.990983      1.060606      0.000000
  C      -0.387911      1.060606      0.000000
>
2
Coordinates from ORCA-job co_scan Relaxed Surface Scan Step 98 E -113.000362290614
  O       0.993998      1.060606      0.000000
  C      -0.390926      1.060606      0.000000
>
2
Coordinates from ORCA-job co_scan Relaxed Surface Scan Step 99 E -112.997613038930
  O       0.997013      1.060606      0.000000
  C      -0.393941      1.060606      0.000000
>
2
Coordinates from ORCA-job co_scan Relaxed Surface Scan Step 100 E -112.994847867447
  O       1.000028      1.060606      0.000000
  C      -0.396957      1.060606      0.000000
>
2
Coordinates from ORCA-job co_scan Relaxed Surface Scan Step 101 E -112.992067723314
  O       1.003043      1.060606      0.000000
  C      -0.399972      1.060606      0.000000
>
2
Coordinates from ORCA-job co_scan Relaxed Surface Scan Step 102 E -112.989273469429
  O       1.006059      1.060606      0.000000
  C      -0.402987      1.060606      0.000000
>
2
Coordinates from ORCA-job co_scan Relaxed Surface Scan Step 103 E -112.986465892271
  O       1.009074      1.060606      0.000000
  C      -0.406002      1.060606      0.000000
>
2
Coordinates from ORCA-job co_scan Relaxed Surface Scan Step 104 E -112.983645687000
  O       1.012089      1.060606      0.000000
  C      -0.409017      1.060606      0.000000
>
2
Coordinates from ORCA-job co_scan Relaxed Surface Scan Step 105 E -112.980813464584
  O       1.015104      1.060606      0.000000
  C      -0.412032      1.060606      0.000000
>
2
Coordinates from ORCA-job co_scan Relaxed Surface Scan Step 106 E -112.977969758968
  O       1.018119      1.060606      0.000000
  C      -0.415047      1.060606      0.000000
>
2
Coordinates from ORCA-job co_scan Relaxed Surface Scan Step 107 E -112.975115009032
  O       1.021134      1.060606      0.000000
  C      -0.418062      1.060606      0.000000
>
2
Coordinates from ORCA-job co_scan Relaxed Surface Scan Step 108 E -112.972249577854
  O       1.024149      1.060606      0.000000
  C      -0.421077      1.060606      0.000000
>
2
Coordinates from ORCA-job co_scan Relaxed Surface Scan Step 109 E -112.969373734361
  O       1.027164      1.060606      0.000000
  C      -0.424092      1.060606      0.000000
>
2
Coordinates from ORCA-job co_scan Relaxed Surface Scan Step 110 E -112.966487659537
  O       1.030179      1.060606      0.000000
  C      -0.427107      1.060606      0.000000
>
2
Coordinates from ORCA-job co_scan Relaxed Surface Scan Step 111 E -112.963591452839
  O       1.033194      1.060606      0.000000
  C      -0.430122      1.060606      0.000000
>
2
Coordinates from ORCA-job co_scan Relaxed Surface Scan Step 112 E -112.960685115655
  O       1.036209      1.060606      0.000000
  C      -0.433137      1.060606      0.000000
>
2
Coordinates from ORCA-job co_scan Relaxed Surface Scan Step 113 E -112.957768556902
  O       1.039224      1.060606      0.000000
  C      -0.436152      1.060606      0.000000
>
2
Coordinates from ORCA-job co_scan Relaxed Surface Scan Step 114 E -112.954841599119
  O       1.042239      1.060606      0.000000
  C      -0.439168      1.060606      0.000000
>
2
Coordinates from ORCA-job co_scan Relaxed Surface Scan Step 115 E -112.951903960600
  O       1.045255      1.060606      0.000000
  C      -0.442183      1.060606      0.000000
>
2
Coordinates from ORCA-job co_scan Relaxed Surface Scan Step 116 E -112.948955261464
  O       1.048270      1.060606      0.000000
  C      -0.445198      1.060606      0.000000
>
2
Coordinates from ORCA-job co_scan Relaxed Surface Scan Step 117 E -112.945995028284
  O       1.051285      1.060606      0.000000
  C      -0.448213      1.060606      0.000000
>
2
Coordinates from ORCA-job co_scan Relaxed Surface Scan Step 118 E -112.943022676229
  O       1.054300      1.060606      0.000000
  C      -0.451228      1.060606      0.000000
>
2
Coordinates from ORCA-job co_scan Relaxed Surface Scan Step 119 E -112.940037513968
  O       1.057315      1.060606      0.000000
  C      -0.454243      1.060606      0.000000
>
2
Coordinates from ORCA-job co_scan Relaxed Surface Scan Step 120 E -112.937038748529
  O       1.060330      1.060606      0.000000
  C      -0.457258      1.060606      0.000000
>
2
Coordinates from ORCA-job co_scan Relaxed Surface Scan Step 121 E -112.934025434958
  O       1.063345      1.060606      0.000000
  C      -0.460273      1.060606      0.000000
>
2
Coordinates from ORCA-job co_scan Relaxed Surface Scan Step 122 E -112.930996606146
  O       1.066360      1.060606      0.000000
  C      -0.463288      1.060606      0.000000
>
2
Coordinates from ORCA-job co_scan Relaxed Surface Scan Step 123 E -112.927951091745
  O       1.069375      1.060606      0.000000
  C      -0.466303      1.060606      0.000000
>
2
Coordinates from ORCA-job co_scan Relaxed Surface Scan Step 124 E -112.924887621037
  O       1.072390      1.060606      0.000000
  C      -0.469318      1.060606      0.000000
>
2
Coordinates from ORCA-job co_scan Relaxed Surface Scan Step 125 E -112.921804797013
  O       1.075405      1.060606      0.000000
  C      -0.472333      1.060606      0.000000
>
2
Coordinates from ORCA-job co_scan Relaxed Surface Scan Step 126 E -112.918701100910
  O       1.078420      1.060606      0.000000
  C      -0.475348      1.060606      0.000000
>
2
Coordinates from ORCA-job co_scan Relaxed Surface Scan Step 127 E -112.915574873050
  O       1.081435      1.060606      0.000000
  C      -0.478364      1.060606      0.000000
>
2
Coordinates from ORCA-job co_scan Relaxed Surface Scan Step 128 E -112.912424319136
  O       1.084451      1.060606      0.000000
  C      -0.481379      1.060606      0.000000
>
2
Coordinates from ORCA-job co_scan Relaxed Surface Scan Step 129 E -112.909247515802
  O       1.087466      1.060606      0.000000
  C      -0.484394      1.060606      0.000000
>
2
Coordinates from ORCA-job co_scan Relaxed Surface Scan Step 130 E -112.906042393962
  O       1.090481      1.060606      0.000000
  C      -0.487409      1.060606      0.000000
>
2
Coordinates from ORCA-job co_scan Relaxed Surface Scan Step 131 E -112.902806745887
  O       1.093496      1.060606      0.000000
  C      -0.490424      1.060606      0.000000
>
2
Coordinates from ORCA-job co_scan Relaxed Surface Scan Step 132 E -112.899538234653
  O       1.096511      1.060606      0.000000
  C      -0.493439      1.060606      0.000000
>
2
Coordinates from ORCA-job co_scan Relaxed Surface Scan Step 133 E -112.896234375869
  O       1.099526      1.060606      0.000000
  C      -0.496454      1.060606      0.000000
>
2
Coordinates from ORCA-job co_scan Relaxed Surface Scan Step 134 E -112.892892564272
  O       1.102541      1.060606      0.000000
  C      -0.499469      1.060606      0.000000
>
2
Coordinates from ORCA-job co_scan Relaxed Surface Scan Step 135 E -112.889510059237
  O       1.105556      1.060606      0.000000
  C      -0.502484      1.060606      0.000000
>
2
Coordinates from ORCA-job co_scan Relaxed Surface Scan Step 136 E -112.886084001215
  O       1.108571      1.060606      0.000000
  C      -0.505499      1.060606      0.000000
>
2
Coordinates from ORCA-job co_scan Relaxed Surface Scan Step 137 E -112.882611432305
  O       1.111586      1.060606      0.000000
  C      -0.508514      1.060606      0.000000
>
2
Coordinates from ORCA-job co_scan Relaxed Surface Scan Step 138 E -112.879089292980
  O       1.114601      1.060606      0.000000
  C      -0.511529      1.060606      0.000000
>
2
Coordinates from ORCA-job co_scan Relaxed Surface Scan Step 139 E -112.875514449823
  O       1.117616      1.060606      0.000000
  C      -0.514544      1.060606      0.000000
>
2
Coordinates from ORCA-job co_scan Relaxed Surface Scan Step 140 E -112.871883728480
  O       1.120631      1.060606      0.000000
  C      -0.517560      1.060606      0.000000
>
2
Coordinates from ORCA-job co_scan Relaxed Surface Scan Step 141 E -112.868193923822
  O       1.123647      1.060606      0.000000
  C      -0.520575      1.060606      0.000000
>
2
Coordinates from ORCA-job co_scan Relaxed Surface Scan Step 142 E -112.864441843653
  O       1.126662      1.060606      0.000000
  C      -0.523590      1.060606      0.000000
>
2
Coordinates from ORCA-job co_scan Relaxed Surface Scan Step 143 E -112.860624359587
  O       1.129677      1.060606      0.000000
  C      -0.526605      1.060606      0.000000
>
2
Coordinates from ORCA-job co_scan Relaxed Surface Scan Step 144 E -112.856738434310
  O       1.132692      1.060606      0.000000
  C      -0.529620      1.060606      0.000000
>
2
Coordinates from ORCA-job co_scan Relaxed Surface Scan Step 145 E -112.852781185895
  O       1.135707      1.060606      0.000000
  C      -0.532635      1.060606      0.000000
>
2
Coordinates from ORCA-job co_scan Relaxed Surface Scan Step 146 E -112.848749958592
  O       1.138722      1.060606      0.000000
  C      -0.535650      1.060606      0.000000
>
2
Coordinates from ORCA-job co_scan Relaxed Surface Scan Step 147 E -112.844642369519
  O       1.141737      1.060606      0.000000
  C      -0.538665      1.060606      0.000000
>
2
Coordinates from ORCA-job co_scan Relaxed Surface Scan Step 148 E -112.840456391194
  O       1.144752      1.060606      0.000000
  C      -0.541680      1.060606      0.000000
>
2
Coordinates from ORCA-job co_scan Relaxed Surface Scan Step 149 E -112.836190439978
  O       1.147767      1.060606      0.000000
  C      -0.544695      1.060606      0.000000
>
2
Coordinates from ORCA-job co_scan Relaxed Surface Scan Step 150 E -112.831843433686
  O       1.150782      1.060606      0.000000
  C      -0.547710      1.060606      0.000000
>
2
Coordinates from ORCA-job co_scan Relaxed Surface Scan Step 151 E -112.827414882163
  O       1.153797      1.060606      0.000000
  C      -0.550725      1.060606      0.000000
>
2
Coordinates from ORCA-job co_scan Relaxed Surface Scan Step 152 E -112.822904976968
  O       1.156812      1.060606      0.000000
  C      -0.553740      1.060606      0.000000
>
2
Coordinates from ORCA-job co_scan Relaxed Surface Scan Step 153 E -112.818314639938
  O       1.159827      1.060606      0.000000
  C      -0.556756      1.060606      0.000000
>
2
Coordinates from ORCA-job co_scan Relaxed Surface Scan Step 154 E -112.813645597037
  O       1.162842      1.060606      0.000000
  C      -0.559771      1.060606      0.000000
>
2
Coordinates from ORCA-job co_scan Relaxed Surface Scan Step 155 E -112.808900440621
  O       1.165858      1.060606      0.000000
  C      -0.562786      1.060606      0.000000
>
2
Coordinates from ORCA-job co_scan Relaxed Surface Scan Step 156 E -112.804082633289
  O       1.168873      1.060606      0.000000
  C      -0.565801      1.060606      0.000000
>
2
Coordinates from ORCA-job co_scan Relaxed Surface Scan Step 157 E -112.799196553921
  O       1.171888      1.060606      0.000000
  C      -0.568816      1.060606      0.000000
>
2
Coordinates from ORCA-job co_scan Relaxed Surface Scan Step 158 E -112.794247458256
  O       1.174903      1.060606      0.000000
  C      -0.571831      1.060606      0.000000
>
2
Coordinates from ORCA-job co_scan Relaxed Surface Scan Step 159 E -112.789241456616
  O       1.177918      1.060606      0.000000
  C      -0.574846      1.060606      0.000000
>
2
Coordinates from ORCA-job co_scan Relaxed Surface Scan Step 160 E -112.784185467951
  O       1.180933      1.060606      0.000000
  C      -0.577861      1.060606      0.000000
>
2
Coordinates from ORCA-job co_scan Relaxed Surface Scan Step 161 E -112.779087110536
  O       1.183948      1.060606      0.000000
  C      -0.580876      1.060606      0.000000
>
2
Coordinates from ORCA-job co_scan Relaxed Surface Scan Step 162 E -112.773954611733
  O       1.186963      1.060606      0.000000
  C      -0.583891      1.060606      0.000000
>
2
Coordinates from ORCA-job co_scan Relaxed Surface Scan Step 163 E -112.768796701817
  O       1.189978      1.060606      0.000000
  C      -0.586906      1.060606      0.000000
>
2
Coordinates from ORCA-job co_scan Relaxed Surface Scan Step 164 E -112.763622457109
  O       1.192993      1.060606      0.000000
  C      -0.589921      1.060606      0.000000
>
2
Coordinates from ORCA-job co_scan Relaxed Surface Scan Step 165 E -112.758441176574
  O       1.196008      1.060606      0.000000
  C      -0.592936      1.060606      0.000000
>
2