2
Coordinates from ORCA-job n2_scan Relaxed Surface Scan Step 1 E -108.733919672040
  N       0.148800      0.000000      0.000000
  N       0.948800      0.000000      0.000000
>
2
Coordinates from ORCA-job n2_scan Relaxed Surface Scan Step 2 E -108.764613666449
  N       0.145785      0.000000      0.000000
  N       0.951815      0.000000      0.000000
>
2
Coordinates from ORCA-job n2_scan Relaxed Surface Scan Step 3 E -108.793976524176
  N       0.142770      0.000000      0.000000
  N       0.954830      0.000000      0.000000
>
2
Coordinates from ORCA-job n2_scan Relaxed Surface Scan Step 4 E -108.822057229685
  N       0.139755      0.000000      0.000000
  N       0.957845      0.000000      0.000000
>
2
Coordinates from ORCA-job n2_scan Relaxed Surface Scan Step 5 E -108.848902902277
  N       0.136740      0.000000      0.000000
  N       0.960860      0.000000      0.000000
>
2
Coordinates from ORCA-job n2_scan Relaxed Surface Scan Step 6 E -108.874559013478
  N       0.133725      0.000000      0.000000
  N       0.963875      0.000000      0.000000
>
2
Coordinates from ORCA-job n2_scan Relaxed Surface Scan Step 7 E -108.899069370814
  N       0.130710      0.000000      0.000000
  N       0.966890      0.000000      0.000000
>
2
Coordinates from ORCA-job n2_scan Relaxed Surface Scan Step 8 E -108.922476122980
  N       0.127694      0.000000      0.000000
  N       0.969906      0.000000      0.000000
>
2
Coordinates from ORCA-job n2_scan Relaxed Surface Scan Step 9 E -108.944819949250
  N       0.124679      0.000000      0.000000
  N       0.972921      0.000000      0.000000
>
2
Coordinates from ORCA-job n2_scan Relaxed Surface Scan Step 10 E -108.966140048796
  N       0.121664      0.000000      0.000000
  N       0.975936      0.000000      0.000000
>
2
Coordinates from ORCA-job n2_scan Relaxed Surface Scan Step 11 E -108.986474145067
  N       0.118649      0.000000      0.000000
  N       0.978951      0.000000      0.000000
>
2
Coordinates from ORCA-job n2_scan Relaxed Surface Scan Step 12 E -109.005858668784
  N       0.115634      0.000000      0.000000
  N       0.981966      0.000000      0.000000
>
2
Coordinates from ORCA-job n2_scan Relaxed Surface Scan Step 13 E -109.024328666797
  N       0.112619      0.000000      0.000000
  N       0.984981      0.000000      0.000000
>
2
Coordinates from ORCA-job n2_scan Relaxed Surface Scan Step 14 E -109.041917973680
  N       0.109604      0.000000      0.000000
  N       0.987996      0.000000      0.000000
>
2
Coordinates from ORCA-job n2_scan Relaxed Surface Scan Step 15 E -109.058659204781
  N       0.106589      0.000000      0.000000
  N       0.991011      0.000000      0.000000
>
2
Coordinates from ORCA-job n2_scan Relaxed Surface Scan Step 16 E -109.074583762473
  N       0.103574      0.000000      0.000000
  N       0.994026      0.000000      0.000000
>
2
Coordinates from ORCA-job n2_scan Relaxed Surface Scan Step 17 E -109.089721968601
  N       0.100559      0.000000      0.000000
  N       0.997041      0.000000      0.000000
>
2
Coordinates from ORCA-job n2_scan Relaxed Surface Scan Step 18 E -109.104103059957
  N       0.097544      0.000000      0.000000
  N       1.000056      0.000000      0.000000
>
2
Coordinates from ORCA-job n2_scan Relaxed Surface Scan Step 19 E -109.117755194743
  N       0.094529      0.000000      0.000000
  N       1.003071      0.000000      0.000000
>
2
Coordinates from ORCA-job n2_scan Relaxed Surface Scan Step 20 E -109.130705567910
  N       0.091514      0.000000      0.000000
  N       1.006086      0.000000      0.000000
>
2
Coordinates from ORCA-job n2_scan Relaxed Surface Scan Step 21 E -109.142980408378
  N       0.088498      0.000000      0.000000
  N       1.009102      0.000000      0.000000
>
2
Coordinates from ORCA-job n2_scan Relaxed Surface Scan Step 22 E -109.154604986327
  N       0.085483      0.000000      0.000000
  N       1.012117      0.000000      0.000000
>
2
Coordinates from ORCA-job n2_scan Relaxed Surface Scan Step 23 E -109.165603712615
  N       0.082468      0.000000      0.000000
  N       1.015132      0.000000      0.000000
>
2
Coordinates from ORCA-job n2_scan Relaxed Surface Scan Step 24 E -109.176000137814
  N       0.079453      0.000000      0.000000
  N       1.018147      0.000000      0.000000
>
2
Coordinates from ORCA-job n2_scan Relaxed Surface Scan Step 25 E -109.185816959844
  N       0.076438      0.000000      0.000000
  N       1.021162      0.000000      0.000000
>
2
Coordinates from ORCA-job n2_scan Relaxed Surface Scan Step 26 E -109.195076109781
  N       0.073423      0.000000      0.000000
  N       1.024177      0.000000      0.000000
>
2
Coordinates from ORCA-job n2_scan Relaxed Surface Scan Step 27 E -109.203798752076
  N       0.070408      0.000000      0.000000
  N       1.027192      0.000000      0.000000
>
2
Coordinates from ORCA-job n2_scan Relaxed Surface Scan Step 28 E -109.212005292756
  N       0.067393      0.000000      0.000000
  N       1.030207      0.000000      0.000000
>
2
Coordinates from ORCA-job n2_scan Relaxed Surface Scan Step 29 E -109.219715452674
  N       0.064378      0.000000      0.000000
  N       1.033222      0.000000      0.000000
>
2
Coordinates from ORCA-job n2_scan Relaxed Surface Scan Step 30 E -109.226948269271
  N       0.061363      0.000000      0.000000
  N       1.036237      0.000000      0.000000
>
2
Coordinates from ORCA-job n2_scan Relaxed Surface Scan Step 31 E -109.233722104933
  N       0.058348      0.000000      0.000000
  N       1.039252      0.000000      0.000000
>
2
Coordinates from ORCA-job n2_scan Relaxed Surface Scan Step 32 E -109.240054709294
  N       0.055333      0.000000      0.000000
  N       1.042267      0.000000      0.000000
>
2
Coordinates from ORCA-job n2_scan Relaxed Surface Scan Step 33 E -109.245963222195
  N       0.052318      0.000000      0.000000
  N       1.045282      0.000000      0.000000
>
2
Coordinates from ORCA-job n2_scan Relaxed Surface Scan Step 34 E -109.251464182082
  N       0.049303      0.000000      0.000000
  N       1.048297      0.000000      0.000000
>
2
Coordinates from ORCA-job n2_scan Relaxed Surface Scan Step 35 E -109.256573583202
  N       0.046287      0.000000      0.000000
  N       1.051313      0.000000      0.000000
>
2
Coordinates from ORCA-job n2_scan Relaxed Surface Scan Step 36 E -109.261306857789
  N       0.043272      0.000000      0.000000
  N       1.054328      0.000000      0.000000
>
2
Coordinates from ORCA-job n2_scan Relaxed Surface Scan Step 37 E -109.265678927870
  N       0.040257      0.000000      0.000000
  N       1.057343      0.000000      0.000000
>
2
Coordinates from ORCA-job n2_scan Relaxed Surface Scan Step 38 E -109.269704209898
  N       0.037242      0.000000      0.000000
  N       1.060358      0.000000      0.000000
>
2
Coordinates from ORCA-job n2_scan Relaxed Surface Scan Step 39 E -109.273396623614
  N       0.034227      0.000000      0.000000
  N       1.063373      0.000000      0.000000
>
2
Coordinates from ORCA-job n2_scan Relaxed Surface Scan Step 40 E -109.276769630938
  N       0.031212      0.000000      0.000000
  N       1.066388      0.000000      0.000000
>
2
Coordinates from ORCA-job n2_scan Relaxed Surface Scan Step 41 E -109.279836241035
  N       0.028197      0.000000      0.000000
  N       1.069403      0.000000      0.000000
>
2
Coordinates from ORCA-job n2_scan Relaxed Surface Scan Step 42 E -109.282609020612
  N       0.025182      0.000000      0.000000
  N       1.072418      0.000000      0.000000
>
2
Coordinates from ORCA-job n2_scan Relaxed Surface Scan Step 43 E -109.285100122086
  N       0.022167      0.000000      0.000000
  N       1.075433      0.000000      0.000000
>
2
Coordinates from ORCA-job n2_scan Relaxed Surface Scan Step 44 E -109.287321294504
  N       0.019152      0.000000      0.000000
  N       1.078448      0.000000      0.000000
>
2
Coordinates from ORCA-job n2_scan Relaxed Surface Scan Step 45 E -109.289283889687
  N       0.016137      0.000000      0.000000
  N       1.081463      0.000000      0.000000
>
2
Coordinates from ORCA-job n2_scan Relaxed Surface Scan Step 46 E -109.290998888658
  N       0.013122      0.000000      0.000000
  N       1.084478      0.000000      0.000000
>
2
Coordinates from ORCA-job n2_scan Relaxed Surface Scan Step 47 E -109.292476907787
  N       0.010107      0.000000      0.000000
  N       1.087493      0.000000      0.000000
>
2
Coordinates from ORCA-job n2_scan Relaxed Surface Scan Step 48 E -109.293728208788
  N       0.007091      0.000000      0.000000
  N       1.090509      0.000000      0.000000
>
2
Coordinates from ORCA-job n2_scan Relaxed Surface Scan Step 49 E -109.294762718459
  N       0.004076      0.000000      0.000000
  N       1.093524      0.000000      0.000000
>
2
Coordinates from ORCA-job n2_scan Relaxed Surface Scan Step 50 E -109.295590035655
  N       0.001061      0.000000      0.000000
  N       1.096539      0.000000      0.000000
>
2
Coordinates from ORCA-job n2_scan Relaxed Surface Scan Step 51 E -109.296219441272
  N      -0.001954      0.000000      0.000000
  N       1.099554      0.000000      0.000000
>
2
Coordinates from ORCA-job n2_scan Relaxed Surface Scan Step 52 E -109.296659913296
  N      -0.004969      0.000000      0.000000
  N       1.102569      0.000000      0.000000
>
2
Coordinates from ORCA-job n2_scan Relaxed Surface Scan Step 53 E -109.296920134207
  N      -0.007984      0.000000      0.000000
  N       1.105584      0.000000      0.000000
>
2
Coordinates from ORCA-job n2_scan Relaxed Surface Scan Step 54 E -109.297008500906
  N      -0.010999      0.000000      0.000000
  N       1.108599      0.000000      0.000000
>
2
Coordinates from ORCA-job n2_scan Relaxed Surface Scan Step 55 E -109.296933135677
  N      -0.014014      0.000000      0.000000
  N       1.111614      0.000000      0.000000
>
2
Coordinates from ORCA-job n2_scan Relaxed Surface Scan Step 56 E -109.296701893991
  N      -0.017029      0.000000      0.000000
  N       1.114629      0.000000      0.000000
>
2
Coordinates from ORCA-job n2_scan Relaxed Surface Scan Step 57 E -109.296322374621
  N      -0.020044      0.000000      0.000000
  N       1.117644      0.000000      0.000000
>
2
Coordinates from ORCA-job n2_scan Relaxed Surface Scan Step 58 E -109.295801926613
  N      -0.023059      0.000000      0.000000
  N       1.120659      0.000000      0.000000
>
2
Coordinates from ORCA-job n2_scan Relaxed Surface Scan Step 59 E -109.295147657905
  N      -0.026074      0.000000      0.000000
  N       1.123674      0.000000      0.000000
>
2
Coordinates from ORCA-job n2_scan Relaxed Surface Scan Step 60 E -109.294366444909
  N      -0.029089      0.000000      0.000000
  N       1.126689      0.000000      0.000000
>
2
Coordinates from ORCA-job n2_scan Relaxed Surface Scan Step 61 E -109.293464936147
  N      -0.032105      0.000000      0.000000
  N       1.129705      0.000000      0.000000
>
2
Coordinates from ORCA-job n2_scan Relaxed Surface Scan Step 62 E -109.292449564614
  N      -0.035120      0.000000      0.000000
  N       1.132720      0.000000      0.000000
>
2
Coordinates from ORCA-job n2_scan Relaxed Surface Scan Step 63 E -109.291326549492
  N      -0.038135      0.000000      0.000000
  N       1.135735      0.000000      0.000000
>
2
Coordinates from ORCA-job n2_scan Relaxed Surface Scan Step 64 E -109.290101905026
  N      -0.041150      0.000000      0.000000
  N       1.138750      0.000000      0.000000
>
2
Coordinates from ORCA-job n2_scan Relaxed Surface Scan Step 65 E -109.288781450140
  N      -0.044165      0.000000      0.000000
  N       1.141765      0.000000      0.000000
>
2
Coordinates from ORCA-job n2_scan Relaxed Surface Scan Step 66 E -109.287370808913
  N      -0.047180      0.000000      0.000000
  N       1.144780      0.000000      0.000000
>
2
Coordinates from ORCA-job n2_scan Relaxed Surface Scan Step 67 E -109.285875418600
  N      -0.050195      0.000000      0.000000
  N       1.147795      0.000000      0.000000
>
2
Coordinates from ORCA-job n2_scan Relaxed Surface Scan Step 68 E -109.284300540256
  N      -0.053210      0.000000      0.000000
  N       1.150810      0.000000      0.000000
>
2
Coordinates from ORCA-job n2_scan Relaxed Surface Scan Step 69 E -109.282651255729
  N      -0.056225      0.000000      0.000000
  N       1.153825      0.000000      0.000000
>
2
Coordinates from ORCA-job n2_scan Relaxed Surface Scan Step 70 E -109.280932477298
  N      -0.059240      0.000000      0.000000
  N       1.156840      0.000000      0.000000
>
2
Coordinates from ORCA-job n2_scan Relaxed Surface Scan Step 71 E -109.279148957483
  N      -0.062255      0.000000      0.000000
  N       1.159855      0.000000      0.000000
>
2
Coordinates from ORCA-job n2_scan Relaxed Surface Scan Step 72 E -109.277305284634
  N      -0.065270      0.000000      0.000000
  N       1.162870      0.000000      0.000000
>
2
Coordinates from ORCA-job n2_scan Relaxed Surface Scan Step 73 E -109.275405892116
  N      -0.068285      0.000000      0.000000
  N       1.165885      0.000000      0.000000
>
2
Coordinates from ORCA-job n2_scan Relaxed Surface Scan Step 74 E -109.273455068490
  N      -0.071301      0.000000      0.000000
  N       1.168901      0.000000      0.000000
>
2
Coordinates from ORCA-job n2_scan Relaxed Surface Scan Step 75 E -109.271456951506
  N      -0.074316      0.000000      0.000000
  N       1.171916      0.000000      0.000000
>
2
Coordinates from ORCA-job n2_scan Relaxed Surface Scan Step 76 E -109.269415537532
  N      -0.077331      0.000000      0.000000
  N       1.174931      0.000000      0.000000
>
2
Coordinates from ORCA-job n2_scan Relaxed Surface Scan Step 77 E -109.267334691096
  N      -0.080346      0.000000      0.000000
  N       1.177946      0.000000      0.000000
>
2
Coordinates from ORCA-job n2_scan Relaxed Surface Scan Step 78 E -109.265218138244
  N      -0.083361      0.000000      0.000000
  N       1.180961      0.000000      0.000000
>
2
Coordinates from ORCA-job n2_scan Relaxed Surface Scan Step 79 E -109.263069476084
  N      -0.086376      0.000000      0.000000
  N       1.183976      0.000000      0.000000
>
2
Coordinates from ORCA-job n2_scan Relaxed Surface Scan Step 80 E -109.260892181207
  N      -0.089391      0.000000      0.000000
  N       1.186991      0.000000      0.000000
>
2
Coordinates from ORCA-job n2_scan Relaxed Surface Scan Step 81 E -109.258689603297
  N      -0.092406      0.000000      0.000000
  N       1.190006      0.000000      0.000000
>
2
Coordinates from ORCA-job n2_scan Relaxed Surface Scan Step 82 E -109.256464973491
  N      -0.095421      0.000000      0.000000
  N       1.193021      0.000000      0.000000
>
2
Coordinates from ORCA-job n2_scan Relaxed Surface Scan Step 83 E -109.254221413974
  N      -0.098436      0.000000      0.000000
  N       1.196036      0.000000      0.000000
>
2
Coordinates from ORCA-job n2_scan Relaxed Surface Scan Step 84 E -109.251961927620
  N      -0.101451      0.000000      0.000000
  N       1.199051      0.000000      0.000000
>
2
Coordinates from ORCA-job n2_scan Relaxed Surface Scan Step 85 E -109.249689416955
  N      -0.104466      0.000000      0.000000
  N       1.202066      0.000000      0.000000
>
2
Coordinates from ORCA-job n2_scan Relaxed Surface Scan Step 86 E -109.247406673367
  N      -0.107481      0.000000      0.000000
  N       1.205081      0.000000      0.000000
>
2
Coordinates from ORCA-job n2_scan Relaxed Surface Scan Step 87 E -109.245116375612
  N      -0.110496      0.000000      0.000000
  N       1.208096      0.000000      0.000000
>
2
Coordinates from ORCA-job n2_scan Relaxed Surface Scan Step 88 E -109.242821140366
  N      -0.113512      0.000000      0.000000
  N       1.211112      0.000000      0.000000
>
2
Coordinates from ORCA-job n2_scan Relaxed Surface Scan Step 89 E -109.240523451621
  N      -0.116527      0.000000      0.000000
  N       1.214127      0.000000      0.000000
>
2
Coordinates from ORCA-job n2_scan Relaxed Surface Scan Step 90 E -109.238225709785
  N      -0.119542      0.000000      0.000000
  N       1.217142      0.000000      0.000000
>
2
Coordinates from ORCA-job n2_scan Relaxed Surface Scan Step 91 E -109.235930230602
  N      -0.122557      0.000000      0.000000
  N       1.220157      0.000000      0.000000
>
2
Coordinates from ORCA-job n2_scan Relaxed Surface Scan Step 92 E -109.233639235681
  N      -0.125572      0.000000      0.000000
  N       1.223172      0.000000      0.000000
>
2
Coordinates from ORCA-job n2_scan Relaxed Surface Scan Step 93 E -109.231354861119
  N      -0.128587      0.000000      0.000000
  N       1.226187      0.000000      0.000000
>
2
Coordinates from ORCA-job n2_scan Relaxed Surface Scan Step 94 E -109.229079166052
  N      -0.131602      0.000000      0.000000
  N       1.229202      0.000000      0.000000
>
2
Coordinates from ORCA-job n2_scan Relaxed Surface Scan Step 95 E -109.226814123017
  N      -0.134617      0.000000      0.000000
  N       1.232217      0.000000      0.000000
>
2
Coordinates from ORCA-job n2_scan Relaxed Surface Scan Step 96 E -109.224561626411
  N      -0.137632      0.000000      0.000000
  N       1.235232      0.000000      0.000000
>
2
Coordinates from ORCA-job n2_scan Relaxed Surface Scan Step 97 E -109.222323500856
  N      -0.140647      0.000000      0.000000
  N       1.238247      0.000000      0.000000
>
2
Coordinates from ORCA-job n2_scan Relaxed Surface Scan Step 98 E -109.220101491331
  N      -0.143662      0.000000      0.000000
  N       1.241262      0.000000      0.000000
>
2
Coordinates from ORCA-job n2_scan Relaxed Surface Scan Step 99 E -109.217897271586
  N      -0.146677      0.000000      0.000000
  N       1.244277      0.000000      0.000000
>
2
Coordinates from ORCA-job n2_scan Relaxed Surface Scan Step 100 E -109.215712451994
  N      -0.149692      0.000000      0.000000
  N       1.247292      0.000000      0.000000
>
2
Coordinates from ORCA-job n2_scan Relaxed Surface Scan Step 101 E -109.213548569989
  N      -0.152708      0.000000      0.000000
  N       1.250308      0.000000      0.000000
>
2
Coordinates from ORCA-job n2_scan Relaxed Surface Scan Step 102 E -109.211407098090
  N      -0.155723      0.000000      0.000000
  N       1.253323      0.000000      0.000000
>
2
Coordinates from ORCA-job n2_scan Relaxed Surface Scan Step 103 E -109.209289451542
  N      -0.158738      0.000000      0.000000
  N       1.256338      0.000000      0.000000
>
2
Coordinates from ORCA-job n2_scan Relaxed Surface Scan Step 104 E -109.207196978763
  N      -0.161753      0.000000      0.000000
  N       1.259353      0.000000      0.000000
>
2
Coordinates from ORCA-job n2_scan Relaxed Surface Scan Step 105 E -109.205130969249
  N      -0.164768      0.000000      0.000000
  N       1.262368      0.000000      0.000000
>
2
Coordinates from ORCA-job n2_scan Relaxed Surface Scan Step 106 E -109.203092660647
  N      -0.167783      0.000000      0.000000
  N       1.265383      0.000000      0.000000
>
2
Coordinates from ORCA-job n2_scan Relaxed Surface Scan Step 107 E -109.201083227969
  N      -0.170798      0.000000      0.000000
  N       1.268398      0.000000      0.000000
>
2
Coordinates from ORCA-job n2_scan Relaxed Surface Scan Step 108 E -109.199103799696
  N      -0.173813      0.000000      0.000000
  N       1.271413      0.000000      0.000000
>
2
Coordinates from ORCA-job n2_scan Relaxed Surface Scan Step 109 E -109.197155447139
  N      -0.176828      0.000000      0.000000
  N       1.274428      0.000000      0.000000
>
2
Coordinates from ORCA-job n2_scan Relaxed Surface Scan Step 110 E -109.195239191530
  N      -0.179843      0.000000      0.000000
  N       1.277443      0.000000      0.000000
>
2
Coordinates from ORCA-job n2_scan Relaxed Surface Scan Step 111 E -109.193356010560
  N      -0.182858      0.000000      0.000000
  N       1.280458      0.000000      0.000000
>
2
Coordinates from ORCA-job n2_scan Relaxed Surface Scan Step 112 E -109.191506830061
  N      -0.185873      0.000000      0.000000
  N       1.283473      0.000000      0.000000
>
2
Coordinates from ORCA-job n2_scan Relaxed Surface Scan Step 113 E -109.189692530620
  N      -0.188888      0.000000      0.000000
  N       1.286488      0.000000      0.000000
>
2
Coordinates from ORCA-job n2_scan Relaxed Surface Scan Step 114 E -109.187913953781
  N      -0.191904      0.000000      0.000000
  N       1.289504      0.000000      0.000000
>
2
Coordinates from ORCA-job n2_scan Relaxed Surface Scan Step 115 E -109.186171894034
  N      -0.194919      0.000000      0.000000
  N       1.292519      0.000000      0.000000
>
2
Coordinates from ORCA-job n2_scan Relaxed Surface Scan Step 116 E -109.184467105171
  N      -0.197934      0.000000      0.000000
  N       1.295534      0.000000      0.000000
>
2
Coordinates from ORCA-job n2_scan Relaxed Surface Scan Step 117 E -109.182800306104
  N      -0.200949      0.000000      0.000000
  N       1.298549      0.000000      0.000000
>
2
Coordinates from ORCA-job n2_scan Relaxed Surface Scan Step 118 E -109.181172173248
  N      -0.203964      0.000000      0.000000
  N       1.301564      0.000000      0.000000
>
2
Coordinates from ORCA-job n2_scan Relaxed Surface Scan Step 119 E -109.179583346476
  N      -0.206979      0.000000      0.000000
  N       1.304579      0.000000      0.000000
>
2
Coordinates from ORCA-job n2_scan Relaxed Surface Scan Step 120 E -109.178034434471
  N      -0.209994      0.000000      0.000000
  N       1.307594      0.000000      0.000000
>
2
Coordinates from ORCA-job n2_scan Relaxed Surface Scan Step 121 E -109.176526007805
  N      -0.213009      0.000000      0.000000
  N       1.310609      0.000000      0.000000
>
2
Coordinates from ORCA-job n2_scan Relaxed Surface Scan Step 122 E -109.175058604205
  N      -0.216024      0.000000      0.000000
  N       1.313624      0.000000      0.000000
>
2
Coordinates from ORCA-job n2_scan Relaxed Surface Scan Step 123 E -109.173632733769
  N      -0.219039      0.000000      0.000000
  N       1.316639      0.000000      0.000000
>
2
Coordinates from ORCA-job n2_scan Relaxed Surface Scan Step 124 E -109.172248872247
  N      -0.222054      0.000000      0.000000
  N       1.319654      0.000000      0.000000
>
2
Coordinates from ORCA-job n2_scan Relaxed Surface Scan Step 125 E -109.170907466233
  N      -0.225069      0.000000      0.000000
  N       1.322669      0.000000      0.000000
>
2
Coordinates from ORCA-job n2_scan Relaxed Surface Scan Step 126 E -109.169608937652
  N      -0.228084      0.000000      0.000000
  N       1.325684      0.000000      0.000000
>
2
Coordinates from ORCA-job n2_scan Relaxed Surface Scan Step 127 E -109.168353677748
  N      -0.231099      0.000000      0.000000
  N       1.328699      0.000000      0.000000
>
2
Coordinates from ORCA-job n2_scan Relaxed Surface Scan Step 128 E -109.167142051802
  N      -0.234115      0.000000      0.000000
  N       1.331715      0.000000      0.000000
>
2
Coordinates from ORCA-job n2_scan Relaxed Surface Scan Step 129 E -109.165974403165
  N      -0.237130      0.000000      0.000000
  N       1.334730      0.000000      0.000000
>
2
Coordinates from ORCA-job n2_scan Relaxed Surface Scan Step 130 E -109.164851047802
  N      -0.240145      0.000000      0.000000
  N       1.337745      0.000000      0.000000
>
2
Coordinates from ORCA-job n2_scan Relaxed Surface Scan Step 131 E -109.163772278795
  N      -0.243160      0.000000      0.000000
  N       1.340760      0.000000      0.000000
>
2
Coordinates from ORCA-job n2_scan Relaxed Surface Scan Step 132 E -109.162738369437
  N      -0.246175      0.000000      0.000000
  N       1.343775      0.000000      0.000000
>
2
Coordinates from ORCA-job n2_scan Relaxed Surface Scan Step 133 E -109.161749568049
  N      -0.249190      0.000000      0.000000
  N       1.346790      0.000000      0.000000
>
2
Coordinates from ORCA-job n2_scan Relaxed Surface Scan Step 134 E -109.160806261791
  N      -0.252205      0.000000      0.000000
  N       1.349805      0.000000      0.000000
>
2
Coordinates from ORCA-job n2_scan Relaxed Surface Scan Step 135 E -109.159908191784
  N      -0.255220      0.000000      0.000000
  N       1.352820      0.000000      0.000000
>
2
Coordinates from ORCA-job n2_scan Relaxed Surface Scan Step 136 E -109.159056266568
  N      -0.258235      0.000000      0.000000
  N       1.355835      0.000000      0.000000
>
2
Coordinates from ORCA-job n2_scan Relaxed Surface Scan Step 137 E -109.158249751683
  N      -0.261250      0.000000      0.000000
  N       1.358850      0.000000      0.000000
>
2
Coordinates from ORCA-job n2_scan Relaxed Surface Scan Step 138 E -109.157489396322
  N      -0.264265      0.000000      0.000000
  N       1.361865      0.000000      0.000000
>
2
Coordinates from ORCA-job n2_scan Relaxed Surface Scan Step 139 E -109.156775800291
  N      -0.267280      0.000000      0.000000
  N       1.364880      0.000000      0.000000
>
2
Coordinates from ORCA-job n2_scan Relaxed Surface Scan Step 140 E -109.156107887508
  N      -0.270295      0.000000      0.000000
  N       1.367895      0.000000      0.000000
>
2
Coordinates from ORCA-job n2_scan Relaxed Surface Scan Step 141 E -109.155486809665
  N      -0.273311      0.000000      0.000000
  N       1.370911      0.000000      0.000000
>
2
Coordinates from ORCA-job n2_scan Relaxed Surface Scan Step 142 E -109.154911931962
  N      -0.276326      0.000000      0.000000
  N       1.373926      0.000000      0.000000
>
2
Coordinates from ORCA-job n2_scan Relaxed Surface Scan Step 143 E -109.154383884675
  N      -0.279341      0.000000      0.000000
  N       1.376941      0.000000      0.000000
>
2
Coordinates from ORCA-job n2_scan Relaxed Surface Scan Step 144 E -109.153902360034
  N      -0.282356      0.000000      0.000000
  N       1.379956      0.000000      0.000000
>
2
Coordinates from ORCA-job n2_scan Relaxed Surface Scan Step 145 E -109.153467630625
  N      -0.285371      0.000000      0.000000
  N       1.382971      0.000000      0.000000
>
2
Coordinates from ORCA-job n2_scan Relaxed Surface Scan Step 146 E -109.153079909267
  N      -0.288386      0.000000      0.000000
  N       1.385986      0.000000      0.000000
>
2
Coordinates from ORCA-job n2_scan Relaxed Surface Scan Step 147 E -109.152738386583
  N      -0.291401      0.000000      0.000000
  N       1.389001      0.000000      0.000000
>
2
Coordinates from ORCA-job n2_scan Relaxed Surface Scan Step 148 E -109.152443956860
  N      -0.294416      0.000000      0.000000
  N       1.392016      0.000000      0.000000
>
2
Coordinates from ORCA-job n2_scan Relaxed Surface Scan Step 149 E -109.152196632052
  N      -0.297431      0.000000      0.000000
  N       1.395031      0.000000      0.000000
>
2
Coordinates from ORCA-job n2_scan Relaxed Surface Scan Step 150 E -109.151995405861
  N      -0.300446      0.000000      0.000000
  N       1.398046      0.000000      0.000000
>
2
Coordinates from ORCA-job n2_scan Relaxed Surface Scan Step 151 E -108.885894251806
  N      -0.303461      0.000000      0.000000
  N       1.401061      0.000000      0.000000
>
2
Coordinates from ORCA-job n2_scan Relaxed Surface Scan Step 152 E -108.881823280747
  N      -0.306476      0.000000      0.000000
  N       1.404076      0.000000      0.000000
>
2
Coordinates from ORCA-job n2_scan Relaxed Surface Scan Step 153 E -108.877846730903
  N      -0.309491      0.000000      0.000000
  N       1.407091      0.000000      0.000000
>
2
Coordinates from ORCA-job n2_scan Relaxed Surface Scan Step 154 E -108.873961896744
  N      -0.312507      0.000000      0.000000
  N       1.410107      0.000000      0.000000
>
2
Coordinates from ORCA-job n2_scan Relaxed Surface Scan Step 155 E -108.870165935195
  N      -0.315522      0.000000      0.000000
  N       1.413122      0.000000      0.000000
>
2
Coordinates from ORCA-job n2_scan Relaxed Surface Scan Step 156 E -108.866455844864
  N      -0.318537      0.000000      0.000000
  N       1.416137      0.000000      0.000000
>
2
Coordinates from ORCA-job n2_scan Relaxed Surface Scan Step 157 E -108.862828694575
  N      -0.321552      0.000000      0.000000
  N       1.419152      0.000000      0.000000
>
2
Coordinates from ORCA-job n2_scan Relaxed Surface Scan Step 158 E -108.859281955193
  N      -0.324567      0.000000      0.000000
  N       1.422167      0.000000      0.000000
>
2
Coordinates from ORCA-job n2_scan Relaxed Surface Scan Step 159 E -108.855812996326
  N      -0.327582      0.000000      0.000000
  N       1.425182      0.000000      0.000000
>
2
Coordinates from ORCA-job n2_scan Relaxed Surface Scan Step 160 E -108.852419505355
  N      -0.330597      0.000000      0.000000
  N       1.428197      0.000000      0.000000
>
2
Coordinates from ORCA-job n2_scan Relaxed Surface Scan Step 161 E -108.849098955863
  N      -0.333612      0.000000      0.000000
  N       1.431212      0.000000      0.000000
>
2
Coordinates from ORCA-job n2_scan Relaxed Surface Scan Step 162 E -108.845849201830
  N      -0.336627      0.000000      0.000000
  N       1.434227      0.000000      0.000000
>
2
Coordinates from ORCA-job n2_scan Relaxed Surface Scan Step 163 E -108.842667982917
  N      -0.339642      0.000000      0.000000
  N       1.437242      0.000000      0.000000
>
2
Coordinates from ORCA-job n2_scan Relaxed Surface Scan Step 164 E -108.839553283473
  N      -0.342657      0.000000      0.000000
  N       1.440257      0.000000      0.000000
>
2
Coordinates from ORCA-job n2_scan Relaxed Surface Scan Step 165 E -108.836503029029
  N      -0.345672      0.000000      0.000000
  N       1.443272      0.000000      0.000000
>
2