2
Coordinates from ORCA-job o2 Relaxed Surface Scan Step 1 E -149.991093712285
  O       3.379877      1.158273      0.037291
  O       1.155877      1.158273      0.037291
>
2
Coordinates from ORCA-job o2 Relaxed Surface Scan Step 2 E -149.988898724190
  O       3.374843      1.158273      0.037291
  O       1.160910      1.158273      0.037291
>
2
Coordinates from ORCA-job o2 Relaxed Surface Scan Step 3 E -149.986759522269
  O       3.369809      1.158273      0.037291
  O       1.165944      1.158273      0.037291
>
2
Coordinates from ORCA-job o2 Relaxed Surface Scan Step 4 E -149.799169147615
  O       3.364776      1.158273      0.037291
  O       1.170977      1.158273      0.037291
>
2
Coordinates from ORCA-job o2 Relaxed Surface Scan Step 5 E -149.799217711301
  O       3.359742      1.158273      0.037291
  O       1.176011      1.158273      0.037291
>
2
Coordinates from ORCA-job o2 Relaxed Surface Scan Step 6 E -149.799269039688
  O       3.354709      1.158273      0.037291
  O       1.181044      1.158273      0.037291
>
2
Coordinates from ORCA-job o2 Relaxed Surface Scan Step 7 E -149.799322669284
  O       3.349675      1.158273      0.037291
  O       1.186078      1.158273      0.037291
>
2
Coordinates from ORCA-job o2 Relaxed Surface Scan Step 8 E -149.799378480450
  O       3.344642      1.158273      0.037291
  O       1.191112      1.158273      0.037291
>
2
Coordinates from ORCA-job o2 Relaxed Surface Scan Step 9 E -149.799436967908
  O       3.339608      1.158273      0.037291
  O       1.196145      1.158273      0.037291
>
2
Coordinates from ORCA-job o2 Relaxed Surface Scan Step 10 E -149.799498377754
  O       3.334575      1.158273      0.037291
  O       1.201179      1.158273      0.037291
>
2
Coordinates from ORCA-job o2 Relaxed Surface Scan Step 11 E -149.799562979345
  O       3.329541      1.158273      0.037291
  O       1.206212      1.158273      0.037291
>
2
Coordinates from ORCA-job o2 Relaxed Surface Scan Step 12 E -149.799631069231
  O       3.324507      1.158273      0.037291
  O       1.211246      1.158273      0.037291
>
2
Coordinates from ORCA-job o2 Relaxed Surface Scan Step 13 E -149.799702973462
  O       3.319474      1.158273      0.037291
  O       1.216279      1.158273      0.037291
>
2
Coordinates from ORCA-job o2 Relaxed Surface Scan Step 14 E -149.799779050363
  O       3.314440      1.158273      0.037291
  O       1.221313      1.158273      0.037291
>
2
Coordinates from ORCA-job o2 Relaxed Surface Scan Step 15 E -149.799859693318
  O       3.309407      1.158273      0.037291
  O       1.226346      1.158273      0.037291
>
2
Coordinates from ORCA-job o2 Relaxed Surface Scan Step 16 E -149.799945334059
  O       3.304373      1.158273      0.037291
  O       1.231380      1.158273      0.037291
>
2
Coordinates from ORCA-job o2 Relaxed Surface Scan Step 17 E -149.800036445855
  O       3.299340      1.158273      0.037291
  O       1.236414      1.158273      0.037291
>
2
Coordinates from ORCA-job o2 Relaxed Surface Scan Step 18 E -149.800133431733
  O       3.294306      1.158273      0.037291
  O       1.241447      1.158273      0.037291
>
2
Coordinates from ORCA-job o2 Relaxed Surface Scan Step 19 E -149.800237090488
  O       3.289273      1.158273      0.037291
  O       1.246481      1.158273      0.037291
>
2
Coordinates from ORCA-job o2 Relaxed Surface Scan Step 20 E -149.800347925368
  O       3.284239      1.158273      0.037291
  O       1.251514      1.158273      0.037291
>
2
Coordinates from ORCA-job o2 Relaxed Surface Scan Step 21 E -149.800466615911
  O       3.279205      1.158273      0.037291
  O       1.256548      1.158273      0.037291
>
2
Coordinates from ORCA-job o2 Relaxed Surface Scan Step 22 E -149.800593904182
  O       3.274172      1.158273      0.037291
  O       1.261581      1.158273      0.037291
>
2
Coordinates from ORCA-job o2 Relaxed Surface Scan Step 23 E -149.800730600379
  O       3.269138      1.158273      0.037291
  O       1.266615      1.158273      0.037291
>
2
Coordinates from ORCA-job o2 Relaxed Surface Scan Step 24 E -149.800877666941
  O       3.264105      1.158273      0.037291
  O       1.271648      1.158273      0.037291
>
2
Coordinates from ORCA-job o2 Relaxed Surface Scan Step 25 E -149.801035914808
  O       3.259071      1.158273      0.037291
  O       1.276682      1.158273      0.037291
>
2
Coordinates from ORCA-job o2 Relaxed Surface Scan Step 26 E -149.801206469969
  O       3.254038      1.158273      0.037291
  O       1.281716      1.158273      0.037291
>
2
Coordinates from ORCA-job o2 Relaxed Surface Scan Step 27 E -149.801390477020
  O       3.249004      1.158273      0.037291
  O       1.286749      1.158273      0.037291
>
2
Coordinates from ORCA-job o2 Relaxed Surface Scan Step 28 E -149.801589182358
  O       3.243971      1.158273      0.037291
  O       1.291783      1.158273      0.037291
>
2
Coordinates from ORCA-job o2 Relaxed Surface Scan Step 29 E -149.801803942071
  O       3.238937      1.158273      0.037291
  O       1.296816      1.158273      0.037291
>
2
Coordinates from ORCA-job o2 Relaxed Surface Scan Step 30 E -149.802036231506
  O       3.233903      1.158273      0.037291
  O       1.301850      1.158273      0.037291
>
2
Coordinates from ORCA-job o2 Relaxed Surface Scan Step 31 E -149.802287654790
  O       3.228870      1.158273      0.037291
  O       1.306883      1.158273      0.037291
>
2
Coordinates from ORCA-job o2 Relaxed Surface Scan Step 32 E -149.802559955246
  O       3.223836      1.158273      0.037291
  O       1.311917      1.158273      0.037291
>
2
Coordinates from ORCA-job o2 Relaxed Surface Scan Step 33 E -149.802855027529
  O       3.218803      1.158273      0.037291
  O       1.316950      1.158273      0.037291
>
2
Coordinates from ORCA-job o2 Relaxed Surface Scan Step 34 E -149.803174928940
  O       3.213769      1.158273      0.037291
  O       1.321984      1.158273      0.037291
>
2
Coordinates from ORCA-job o2 Relaxed Surface Scan Step 35 E -149.803521893523
  O       3.208736      1.158273      0.037291
  O       1.327018      1.158273      0.037291
>
2
Coordinates from ORCA-job o2 Relaxed Surface Scan Step 36 E -149.803898346198
  O       3.203702      1.158273      0.037291
  O       1.332051      1.158273      0.037291
>
2
Coordinates from ORCA-job o2 Relaxed Surface Scan Step 37 E -149.804306918586
  O       3.198669      1.158273      0.037291
  O       1.337085      1.158273      0.037291
>
2
Coordinates from ORCA-job o2 Relaxed Surface Scan Step 38 E -149.804750330016
  O       3.193635      1.158273      0.037291
  O       1.342118      1.158273      0.037291
>
2
Coordinates from ORCA-job o2 Relaxed Surface Scan Step 39 E -149.805231936398
  O       3.188601      1.158273      0.037291
  O       1.347152      1.158273      0.037291
>
2
Coordinates from ORCA-job o2 Relaxed Surface Scan Step 40 E -149.805754972897
  O       3.183568      1.158273      0.037291
  O       1.352185      1.158273      0.037291
>
2
Coordinates from ORCA-job o2 Relaxed Surface Scan Step 41 E -149.806323081651
  O       3.178534      1.158273      0.037291
  O       1.357219      1.158273      0.037291
>
2
Coordinates from ORCA-job o2 Relaxed Surface Scan Step 42 E -149.806940212079
  O       3.173501      1.158273      0.037291
  O       1.362252      1.158273      0.037291
>
2
Coordinates from ORCA-job o2 Relaxed Surface Scan Step 43 E -149.807610645868
  O       3.168467      1.158273      0.037291
  O       1.367286      1.158273      0.037291
>
2
Coordinates from ORCA-job o2 Relaxed Surface Scan Step 44 E -149.808339024778
  O       3.163434      1.158273      0.037291
  O       1.372320      1.158273      0.037291
>
2
Coordinates from ORCA-job o2 Relaxed Surface Scan Step 45 E -149.809130380467
  O       3.158400      1.158273      0.037291
  O       1.377353      1.158273      0.037291
>
2
Coordinates from ORCA-job o2 Relaxed Surface Scan Step 46 E -149.809990167205
  O       3.153367      1.158273      0.037291
  O       1.382387      1.158273      0.037291
>
2
Coordinates from ORCA-job o2 Relaxed Surface Scan Step 47 E -149.810924296720
  O       3.148333      1.158273      0.037291
  O       1.387420      1.158273      0.037291
>
2
Coordinates from ORCA-job o2 Relaxed Surface Scan Step 48 E -149.811939178577
  O       3.143299      1.158273      0.037291
  O       1.392454      1.158273      0.037291
>
2
Coordinates from ORCA-job o2 Relaxed Surface Scan Step 49 E -149.813041759117
  O       3.138266      1.158273      0.037291
  O       1.397487      1.158273      0.037291
>
2
Coordinates from ORCA-job o2 Relaxed Surface Scan Step 50 E -149.814239568851
  O       3.133232      1.158273      0.037291
  O       1.402521      1.158273      0.037291
>
2
Coordinates from ORCA-job o2 Relaxed Surface Scan Step 51 E -149.815540771322
  O       3.128199      1.158273      0.037291
  O       1.407554      1.158273      0.037291
>
2
Coordinates from ORCA-job o2 Relaxed Surface Scan Step 52 E -149.816954216818
  O       3.123165      1.158273      0.037291
  O       1.412588      1.158273      0.037291
>
2
Coordinates from ORCA-job o2 Relaxed Surface Scan Step 53 E -149.818489500733
  O       3.118132      1.158273      0.037291
  O       1.417622      1.158273      0.037291
>
2
Coordinates from ORCA-job o2 Relaxed Surface Scan Step 54 E -149.820157025857
  O       3.113098      1.158273      0.037291
  O       1.422655      1.158273      0.037291
>
2
Coordinates from ORCA-job o2 Relaxed Surface Scan Step 55 E -149.821968074873
  O       3.108065      1.158273      0.037291
  O       1.427689      1.158273      0.037291
>
2
Coordinates from ORCA-job o2 Relaxed Surface Scan Step 56 E -149.823934879469
  O       3.103031      1.158273      0.037291
  O       1.432722      1.158273      0.037291
>
2
Coordinates from ORCA-job o2 Relaxed Surface Scan Step 57 E -149.826070975148
  O       3.097997      1.158273      0.037291
  O       1.437756      1.158273      0.037291
>
2
Coordinates from ORCA-job o2 Relaxed Surface Scan Step 58 E -149.828390008619
  O       3.092964      1.158273      0.037291
  O       1.442789      1.158273      0.037291
>
2
Coordinates from ORCA-job o2 Relaxed Surface Scan Step 59 E -149.830908235192
  O       3.087930      1.158273      0.037291
  O       1.447823      1.158273      0.037291
>
2
Coordinates from ORCA-job o2 Relaxed Surface Scan Step 60 E -149.833642361395
  O       3.082897      1.158273      0.037291
  O       1.452856      1.158273      0.037291
>
2
Coordinates from ORCA-job o2 Relaxed Surface Scan Step 61 E -149.836610710026
  O       3.077863      1.158273      0.037291
  O       1.457890      1.158273      0.037291
>
2
Coordinates from ORCA-job o2 Relaxed Surface Scan Step 62 E -149.839833681420
  O       3.072830      1.158273      0.037291
  O       1.462924      1.158273      0.037291
>
2
Coordinates from ORCA-job o2 Relaxed Surface Scan Step 63 E -149.843331843445
  O       3.067796      1.158273      0.037291
  O       1.467957      1.158273      0.037291
>
2
Coordinates from ORCA-job o2 Relaxed Surface Scan Step 64 E -149.847128909559
  O       3.062763      1.158273      0.037291
  O       1.472991      1.158273      0.037291
>
2
Coordinates from ORCA-job o2 Relaxed Surface Scan Step 65 E -149.851250067474
  O       3.057729      1.158273      0.037291
  O       1.478024      1.158273      0.037291
>
2
Coordinates from ORCA-job o2 Relaxed Surface Scan Step 66 E -149.855723150947
  O       3.052695      1.158273      0.037291
  O       1.483058      1.158273      0.037291
>
2
Coordinates from ORCA-job o2 Relaxed Surface Scan Step 67 E -149.860576923386
  O       3.047662      1.158273      0.037291
  O       1.488091      1.158273      0.037291
>
2
Coordinates from ORCA-job o2 Relaxed Surface Scan Step 68 E -149.865842922181
  O       3.042628      1.158273      0.037291
  O       1.493125      1.158273      0.037291
>
2
Coordinates from ORCA-job o2 Relaxed Surface Scan Step 69 E -149.871555864861
  O       3.037595      1.158273      0.037291
  O       1.498158      1.158273      0.037291
>
2
Coordinates from ORCA-job o2 Relaxed Surface Scan Step 70 E -149.877753251707
  O       3.032561      1.158273      0.037291
  O       1.503192      1.158273      0.037291
>
2
Coordinates from ORCA-job o2 Relaxed Surface Scan Step 71 E -149.884472074275
  O       3.027528      1.158273      0.037291
  O       1.508226      1.158273      0.037291
>
2
Coordinates from ORCA-job o2 Relaxed Surface Scan Step 72 E -149.891758010622
  O       3.022494      1.158273      0.037291
  O       1.513259      1.158273      0.037291
>
2
Coordinates from ORCA-job o2 Relaxed Surface Scan Step 73 E -149.899649579865
  O       3.017461      1.158273      0.037291
  O       1.518293      1.158273      0.037291
>
2
Coordinates from ORCA-job o2 Relaxed Surface Scan Step 74 E -149.908197201095
  O       3.012427      1.158273      0.037291
  O       1.523326      1.158273      0.037291
>
2
Coordinates from ORCA-job o2 Relaxed Surface Scan Step 75 E -149.915857113526
  O       3.007393      1.158273      0.037291
  O       1.528360      1.158273      0.037291
>
2
Coordinates from ORCA-job o2 Relaxed Surface Scan Step 76 E -149.919067100715
  O       3.002360      1.158273      0.037291
  O       1.533393      1.158273      0.037291
>
2
Coordinates from ORCA-job o2 Relaxed Surface Scan Step 77 E -149.922340607704
  O       2.997326      1.158273      0.037291
  O       1.538427      1.158273      0.037291
>
2
Coordinates from ORCA-job o2 Relaxed Surface Scan Step 78 E -149.925680573127
  O       2.992293      1.158273      0.037291
  O       1.543461      1.158273      0.037291
>
2
Coordinates from ORCA-job o2 Relaxed Surface Scan Step 79 E -149.929090103220
  O       2.987259      1.158273      0.037291
  O       1.548494      1.158273      0.037291
>
2
Coordinates from ORCA-job o2 Relaxed Surface Scan Step 80 E -149.932572371703
  O       2.982226      1.158273      0.037291
  O       1.553528      1.158273      0.037291
>
2
Coordinates from ORCA-job o2 Relaxed Surface Scan Step 81 E -149.936131525997
  O       2.977192      1.158273      0.037291
  O       1.558561      1.158273      0.037291
>
2
Coordinates from ORCA-job o2 Relaxed Surface Scan Step 82 E -149.939771462045
  O       2.972158      1.158273      0.037291
  O       1.563595      1.158273      0.037291
>
2
Coordinates from ORCA-job o2 Relaxed Surface Scan Step 83 E -149.943496663486
  O       2.967125      1.158273      0.037291
  O       1.568628      1.158273      0.037291
>
2
Coordinates from ORCA-job o2 Relaxed Surface Scan Step 84 E -149.947312032945
  O       2.962091      1.158273      0.037291
  O       1.573662      1.158273      0.037291
>
2
Coordinates from ORCA-job o2 Relaxed Surface Scan Step 85 E -149.951222937046
  O       2.957058      1.158273      0.037291
  O       1.578695      1.158273      0.037291
>
2
Coordinates from ORCA-job o2 Relaxed Surface Scan Step 86 E -149.955235244993
  O       2.952024      1.158273      0.037291
  O       1.583729      1.158273      0.037291
>
2
Coordinates from ORCA-job o2 Relaxed Surface Scan Step 87 E -149.959355372224
  O       2.946991      1.158273      0.037291
  O       1.588763      1.158273      0.037291
>
2
Coordinates from ORCA-job o2 Relaxed Surface Scan Step 88 E -149.963590329033
  O       2.941957      1.158273      0.037291
  O       1.593796      1.158273      0.037291
>
2
Coordinates from ORCA-job o2 Relaxed Surface Scan Step 89 E -149.967947770995
  O       2.936924      1.158273      0.037291
  O       1.598830      1.158273      0.037291
>
2
Coordinates from ORCA-job o2 Relaxed Surface Scan Step 90 E -149.972436282852
  O       2.931890      1.158273      0.037291
  O       1.603863      1.158273      0.037291
>
2
Coordinates from ORCA-job o2 Relaxed Surface Scan Step 91 E -149.977064261512
  O       2.926856      1.158273      0.037291
  O       1.608897      1.158273      0.037291
>
2
Coordinates from ORCA-job o2 Relaxed Surface Scan Step 92 E -149.981841809074
  O       2.921823      1.158273      0.037291
  O       1.613930      1.158273      0.037291
>
2
Coordinates from ORCA-job o2 Relaxed Surface Scan Step 93 E -149.986781108377
  O       2.916789      1.158273      0.037291
  O       1.618964      1.158273      0.037291
>
2
Coordinates from ORCA-job o2 Relaxed Surface Scan Step 94 E -149.991892438697
  O       2.911756      1.158273      0.037291
  O       1.623997      1.158273      0.037291
>
2
Coordinates from ORCA-job o2 Relaxed Surface Scan Step 95 E -149.997188793849
  O       2.906722      1.158273      0.037291
  O       1.629031      1.158273      0.037291
>
2
Coordinates from ORCA-job o2 Relaxed Surface Scan Step 96 E -150.002685026863
  O       2.901689      1.158273      0.037291
  O       1.634065      1.158273      0.037291
>
2
Coordinates from ORCA-job o2 Relaxed Surface Scan Step 97 E -150.008399188135
  O       2.896655      1.158273      0.037291
  O       1.639098      1.158273      0.037291
>
2
Coordinates from ORCA-job o2 Relaxed Surface Scan Step 98 E -150.014343252501
  O       2.891622      1.158273      0.037291
  O       1.644132      1.158273      0.037291
>
2
Coordinates from ORCA-job o2 Relaxed Surface Scan Step 99 E -150.020543134665
  O       2.886588      1.158273      0.037291
  O       1.649165      1.158273      0.037291
>
2
Coordinates from ORCA-job o2 Relaxed Surface Scan Step 100 E -150.023866426283
  O       2.881554      1.158273      0.037291
  O       1.654199      1.158273      0.037291
>
2
Coordinates from ORCA-job o2 Relaxed Surface Scan Step 101 E -150.023825906144
  O       2.876521      1.158273      0.037291
  O       1.659232      1.158273      0.037291
>
2
Coordinates from ORCA-job o2 Relaxed Surface Scan Step 102 E -150.023540689340
  O       2.871487      1.158273      0.037291
  O       1.664266      1.158273      0.037291
>
2
Coordinates from ORCA-job o2 Relaxed Surface Scan Step 103 E -150.022989119724
  O       2.866454      1.158273      0.037291
  O       1.669299      1.158273      0.037291
>
2
Coordinates from ORCA-job o2 Relaxed Surface Scan Step 104 E -150.022148038961
  O       2.861420      1.158273      0.037291
  O       1.674333      1.158273      0.037291
>
2
Coordinates from ORCA-job o2 Relaxed Surface Scan Step 105 E -150.020992750631
  O       2.856387      1.158273      0.037291
  O       1.679367      1.158273      0.037291
>
2
Coordinates from ORCA-job o2 Relaxed Surface Scan Step 106 E -150.019496930684
  O       2.851353      1.158273      0.037291
  O       1.684400      1.158273      0.037291
>
2
Coordinates from ORCA-job o2 Relaxed Surface Scan Step 107 E -150.017632529822
  O       2.846320      1.158273      0.037291
  O       1.689434      1.158273      0.037291
>
2
Coordinates from ORCA-job o2 Relaxed Surface Scan Step 108 E -150.015369673407
  O       2.841286      1.158273      0.037291
  O       1.694467      1.158273      0.037291
>
2
Coordinates from ORCA-job o2 Relaxed Surface Scan Step 109 E -150.012676556417
  O       2.836252      1.158273      0.037291
  O       1.699501      1.158273      0.037291
>
2
Coordinates from ORCA-job o2 Relaxed Surface Scan Step 110 E -150.009519332329
  O       2.831219      1.158273      0.037291
  O       1.704534      1.158273      0.037291
>
2
Coordinates from ORCA-job o2 Relaxed Surface Scan Step 111 E -150.005861998729
  O       2.826185      1.158273      0.037291
  O       1.709568      1.158273      0.037291
>
2
Coordinates from ORCA-job o2 Relaxed Surface Scan Step 112 E -150.001666266407
  O       2.821152      1.158273      0.037291
  O       1.714601      1.158273      0.037291
>
2
Coordinates from ORCA-job o2 Relaxed Surface Scan Step 113 E -149.996891441505
  O       2.816118      1.158273      0.037291
  O       1.719635      1.158273      0.037291
>
2
Coordinates from ORCA-job o2 Relaxed Surface Scan Step 114 E -149.991494280528
  O       2.811085      1.158273      0.037291
  O       1.724669      1.158273      0.037291
>
2
Coordinates from ORCA-job o2 Relaxed Surface Scan Step 115 E -149.985428851699
  O       2.806051      1.158273      0.037291
  O       1.729702      1.158273      0.037291
>
2
Coordinates from ORCA-job o2 Relaxed Surface Scan Step 116 E -149.978646364977
  O       2.801018      1.158273      0.037291
  O       1.734736      1.158273      0.037291
>
2
Coordinates from ORCA-job o2 Relaxed Surface Scan Step 117 E -149.971095029936
  O       2.795984      1.158273      0.037291
  O       1.739769      1.158273      0.037291
>
2
Coordinates from ORCA-job o2 Relaxed Surface Scan Step 118 E -149.962719873623
  O       2.790950      1.158273      0.037291
  O       1.744803      1.158273      0.037291
>
2
Coordinates from ORCA-job o2 Relaxed Surface Scan Step 119 E -149.953462539658
  O       2.785917      1.158273      0.037291
  O       1.749836      1.158273      0.037291
>
2
Coordinates from ORCA-job o2 Relaxed Surface Scan Step 120 E -149.943261115960
  O       2.780883      1.158273      0.037291
  O       1.754870      1.158273      0.037291
>
2
Coordinates from ORCA-job o2 Relaxed Surface Scan Step 121 E -149.932049905725
  O       2.775850      1.158273      0.037291
  O       1.759903      1.158273      0.037291
>
2
Coordinates from ORCA-job o2 Relaxed Surface Scan Step 122 E -149.919759191809
  O       2.770816      1.158273      0.037291
  O       1.764937      1.158273      0.037291
>
2
Coordinates from ORCA-job o2 Relaxed Surface Scan Step 123 E -149.906315042024
  O       2.765783      1.158273      0.037291
  O       1.769971      1.158273      0.037291
>
2
Coordinates from ORCA-job o2 Relaxed Surface Scan Step 124 E -149.891638975126
  O       2.760749      1.158273      0.037291
  O       1.775004      1.158273      0.037291
>
2
Coordinates from ORCA-job o2 Relaxed Surface Scan Step 125 E -149.875647735502
  O       2.755716      1.158273      0.037291
  O       1.780038      1.158273      0.037291
>
2
Coordinates from ORCA-job o2 Relaxed Surface Scan Step 126 E -149.858252944099
  O       2.750682      1.158273      0.037291
  O       1.785071      1.158273      0.037291
>
2
Coordinates from ORCA-job o2 Relaxed Surface Scan Step 127 E -149.839360822947
  O       2.745648      1.158273      0.037291
  O       1.790105      1.158273      0.037291
>
2
Coordinates from ORCA-job o2 Relaxed Surface Scan Step 128 E -149.818871810336
  O       2.740615      1.158273      0.037291
  O       1.795138      1.158273      0.037291
>
2
Coordinates from ORCA-job o2 Relaxed Surface Scan Step 129 E -149.796680189554
  O       2.735581      1.158273      0.037291
  O       1.800172      1.158273      0.037291
>
2
Coordinates from ORCA-job o2 Relaxed Surface Scan Step 130 E -149.772673679185
  O       2.730548      1.158273      0.037291
  O       1.805205      1.158273      0.037291
>
2
Coordinates from ORCA-job o2 Relaxed Surface Scan Step 131 E -149.746732990917
  O       2.725514      1.158273      0.037291
  O       1.810239      1.158273      0.037291
>
2
Coordinates from ORCA-job o2 Relaxed Surface Scan Step 132 E -149.718731366581
  O       2.720481      1.158273      0.037291
  O       1.815273      1.158273      0.037291
>
2
Coordinates from ORCA-job o2 Relaxed Surface Scan Step 133 E -149.688534001547
  O       2.715447      1.158273      0.037291
  O       1.820306      1.158273      0.037291
>
2
Coordinates from ORCA-job o2 Relaxed Surface Scan Step 134 E -149.655997573949
  O       2.710414      1.158273      0.037291
  O       1.825340      1.158273      0.037291
>
2
Coordinates from ORCA-job o2 Relaxed Surface Scan Step 135 E -149.620969564351
  O       2.705380      1.158273      0.037291
  O       1.830373      1.158273      0.037291
>
2
Coordinates from ORCA-job o2 Relaxed Surface Scan Step 136 E -149.583287687987
  O       2.700346      1.158273      0.037291
  O       1.835407      1.158273      0.037291
>
2
Coordinates from ORCA-job o2 Relaxed Surface Scan Step 137 E -149.542779078648
  O       2.695313      1.158273      0.037291
  O       1.840440      1.158273      0.037291
>
2
Coordinates from ORCA-job o2 Relaxed Surface Scan Step 138 E -149.499259593892
  O       2.690279      1.158273      0.037291
  O       1.845474      1.158273      0.037291
>
2
Coordinates from ORCA-job o2 Relaxed Surface Scan Step 139 E -149.452533010439
  O       2.685246      1.158273      0.037291
  O       1.850507      1.158273      0.037291
>
2
Coordinates from ORCA-job o2 Relaxed Surface Scan Step 140 E -149.402389955730
  O       2.680212      1.158273      0.037291
  O       1.855541      1.158273      0.037291
>
2
Coordinates from ORCA-job o2 Relaxed Surface Scan Step 141 E -149.348607185681
  O       2.675179      1.158273      0.037291
  O       1.860575      1.158273      0.037291
>
2
Coordinates from ORCA-job o2 Relaxed Surface Scan Step 142 E -149.290946365848
  O       2.670145      1.158273      0.037291
  O       1.865608      1.158273      0.037291
>
2
Coordinates from ORCA-job o2 Relaxed Surface Scan Step 143 E -149.229152969959
  O       2.665112      1.158273      0.037291
  O       1.870642      1.158273      0.037291
>
2
Coordinates from ORCA-job o2 Relaxed Surface Scan Step 144 E -149.162955043568
  O       2.660078      1.158273      0.037291
  O       1.875675      1.158273      0.037291
>
2
Coordinates from ORCA-job o2 Relaxed Surface Scan Step 145 E -149.092061863845
  O       2.655044      1.158273      0.037291
  O       1.880709      1.158273      0.037291
>
2
Coordinates from ORCA-job o2 Relaxed Surface Scan Step 146 E -149.016162529789
  O       2.650011      1.158273      0.037291
  O       1.885742      1.158273      0.037291
>
2
Coordinates from ORCA-job o2 Relaxed Surface Scan Step 147 E -148.934924227030
  O       2.644977      1.158273      0.037291
  O       1.890776      1.158273      0.037291
>
2
Coordinates from ORCA-job o2 Relaxed Surface Scan Step 148 E -148.847990761824
  O       2.639944      1.158273      0.037291
  O       1.895809      1.158273      0.037291
>
2
Coordinates from ORCA-job o2 Relaxed Surface Scan Step 149 E -148.754980557325
  O       2.634910      1.158273      0.037291
  O       1.900843      1.158273      0.037291
>
2
Coordinates from ORCA-job o2 Relaxed Surface Scan Step 150 E -148.655484688371
  O       2.629877      1.158273      0.037291
  O       1.905877      1.158273      0.037291
