2
Coordinates from ORCA-job o2_scan Relaxed Surface Scan Step 1 E -149.205716973213
  O       0.203700      0.000000      0.000000
  O       1.003700      0.000000      0.000000
>
2
Coordinates from ORCA-job o2_scan Relaxed Surface Scan Step 2 E -149.241735758378
  O       0.200685      0.000000      0.000000
  O       1.006715      0.000000      0.000000
>
2
Coordinates from ORCA-job o2_scan Relaxed Surface Scan Step 3 E -149.276293000182
  O       0.197670      0.000000      0.000000
  O       1.009730      0.000000      0.000000
>
2
Coordinates from ORCA-job o2_scan Relaxed Surface Scan Step 4 E -149.309443626393
  O       0.194655      0.000000      0.000000
  O       1.012745      0.000000      0.000000
>
2
Coordinates from ORCA-job o2_scan Relaxed Surface Scan Step 5 E -149.341240346123
  O       0.191640      0.000000      0.000000
  O       1.015760      0.000000      0.000000
>
2
Coordinates from ORCA-job o2_scan Relaxed Surface Scan Step 6 E -149.371733919142
  O       0.188625      0.000000      0.000000
  O       1.018775      0.000000      0.000000
>
2
Coordinates from ORCA-job o2_scan Relaxed Surface Scan Step 7 E -149.400973150936
  O       0.185610      0.000000      0.000000
  O       1.021790      0.000000      0.000000
>
2
Coordinates from ORCA-job o2_scan Relaxed Surface Scan Step 8 E -149.429004903445
  O       0.182594      0.000000      0.000000
  O       1.024806      0.000000      0.000000
>
2
Coordinates from ORCA-job o2_scan Relaxed Surface Scan Step 9 E -149.455874329313
  O       0.179579      0.000000      0.000000
  O       1.027821      0.000000      0.000000
>
2
Coordinates from ORCA-job o2_scan Relaxed Surface Scan Step 10 E -149.481624865745
  O       0.176564      0.000000      0.000000
  O       1.030836      0.000000      0.000000
>
2
Coordinates from ORCA-job o2_scan Relaxed Surface Scan Step 11 E -149.506298243262
  O       0.173549      0.000000      0.000000
  O       1.033851      0.000000      0.000000
>
2
Coordinates from ORCA-job o2_scan Relaxed Surface Scan Step 12 E -149.529934710545
  O       0.170534      0.000000      0.000000
  O       1.036866      0.000000      0.000000
>
2
Coordinates from ORCA-job o2_scan Relaxed Surface Scan Step 13 E -149.552572926515
  O       0.167519      0.000000      0.000000
  O       1.039881      0.000000      0.000000
>
2
Coordinates from ORCA-job o2_scan Relaxed Surface Scan Step 14 E -149.574250170424
  O       0.164504      0.000000      0.000000
  O       1.042896      0.000000      0.000000
>
2
Coordinates from ORCA-job o2_scan Relaxed Surface Scan Step 15 E -149.595002335566
  O       0.161489      0.000000      0.000000
  O       1.045911      0.000000      0.000000
>
2
Coordinates from ORCA-job o2_scan Relaxed Surface Scan Step 16 E -149.614863935074
  O       0.158474      0.000000      0.000000
  O       1.048926      0.000000      0.000000
>
2
Coordinates from ORCA-job o2_scan Relaxed Surface Scan Step 17 E -149.633868265462
  O       0.155459      0.000000      0.000000
  O       1.051941      0.000000      0.000000
>
2
Coordinates from ORCA-job o2_scan Relaxed Surface Scan Step 18 E -149.652047400383
  O       0.152444      0.000000      0.000000
  O       1.054956      0.000000      0.000000
>
2
Coordinates from ORCA-job o2_scan Relaxed Surface Scan Step 19 E -149.669432195344
  O       0.149429      0.000000      0.000000
  O       1.057971      0.000000      0.000000
>
2
Coordinates from ORCA-job o2_scan Relaxed Surface Scan Step 20 E -149.686052430487
  O       0.146414      0.000000      0.000000
  O       1.060986      0.000000      0.000000
>
2
Coordinates from ORCA-job o2_scan Relaxed Surface Scan Step 21 E -149.701936804566
  O       0.143398      0.000000      0.000000
  O       1.064002      0.000000      0.000000
>
2
Coordinates from ORCA-job o2_scan Relaxed Surface Scan Step 22 E -149.717112938698
  O       0.140383      0.000000      0.000000
  O       1.067017      0.000000      0.000000
>
2
Coordinates from ORCA-job o2_scan Relaxed Surface Scan Step 23 E -149.731607501218
  O       0.137368      0.000000      0.000000
  O       1.070032      0.000000      0.000000
>
2
Coordinates from ORCA-job o2_scan Relaxed Surface Scan Step 24 E -149.745446201678
  O       0.134353      0.000000      0.000000
  O       1.073047      0.000000      0.000000
>
2
Coordinates from ORCA-job o2_scan Relaxed Surface Scan Step 25 E -149.758653794563
  O       0.131338      0.000000      0.000000
  O       1.076062      0.000000      0.000000
>
2
Coordinates from ORCA-job o2_scan Relaxed Surface Scan Step 26 E -149.771254187495
  O       0.128323      0.000000      0.000000
  O       1.079077      0.000000      0.000000
>
2
Coordinates from ORCA-job o2_scan Relaxed Surface Scan Step 27 E -149.783270436249
  O       0.125308      0.000000      0.000000
  O       1.082092      0.000000      0.000000
>
2
Coordinates from ORCA-job o2_scan Relaxed Surface Scan Step 28 E -149.794724747816
  O       0.122293      0.000000      0.000000
  O       1.085107      0.000000      0.000000
>
2
Coordinates from ORCA-job o2_scan Relaxed Surface Scan Step 29 E -149.805638574680
  O       0.119278      0.000000      0.000000
  O       1.088122      0.000000      0.000000
>
2
Coordinates from ORCA-job o2_scan Relaxed Surface Scan Step 30 E -149.816032612979
  O       0.116263      0.000000      0.000000
  O       1.091137      0.000000      0.000000
>
2
Coordinates from ORCA-job o2_scan Relaxed Surface Scan Step 31 E -149.825926794956
  O       0.113248      0.000000      0.000000
  O       1.094152      0.000000      0.000000
>
2
Coordinates from ORCA-job o2_scan Relaxed Surface Scan Step 32 E -149.835340386504
  O       0.110233      0.000000      0.000000
  O       1.097167      0.000000      0.000000
>
2
Coordinates from ORCA-job o2_scan Relaxed Surface Scan Step 33 E -149.844291972757
  O       0.107218      0.000000      0.000000
  O       1.100182      0.000000      0.000000
>
2
Coordinates from ORCA-job o2_scan Relaxed Surface Scan Step 34 E -149.852799464174
  O       0.104203      0.000000      0.000000
  O       1.103197      0.000000      0.000000
>
2
Coordinates from ORCA-job o2_scan Relaxed Surface Scan Step 35 E -149.860880173586
  O       0.101187      0.000000      0.000000
  O       1.106213      0.000000      0.000000
>
2
Coordinates from ORCA-job o2_scan Relaxed Surface Scan Step 36 E -149.868550779279
  O       0.098172      0.000000      0.000000
  O       1.109228      0.000000      0.000000
>
2
Coordinates from ORCA-job o2_scan Relaxed Surface Scan Step 37 E -149.875827396890
  O       0.095157      0.000000      0.000000
  O       1.112243      0.000000      0.000000
>
2
Coordinates from ORCA-job o2_scan Relaxed Surface Scan Step 38 E -149.882725577189
  O       0.092142      0.000000      0.000000
  O       1.115258      0.000000      0.000000
>
2
Coordinates from ORCA-job o2_scan Relaxed Surface Scan Step 39 E -149.889260309477
  O       0.089127      0.000000      0.000000
  O       1.118273      0.000000      0.000000
>
2
Coordinates from ORCA-job o2_scan Relaxed Surface Scan Step 40 E -149.895446076431
  O       0.086112      0.000000      0.000000
  O       1.121288      0.000000      0.000000
>
2
Coordinates from ORCA-job o2_scan Relaxed Surface Scan Step 41 E -149.901296852998
  O       0.083097      0.000000      0.000000
  O       1.124303      0.000000      0.000000
>
2
Coordinates from ORCA-job o2_scan Relaxed Surface Scan Step 42 E -149.906826109644
  O       0.080082      0.000000      0.000000
  O       1.127318      0.000000      0.000000
>
2
Coordinates from ORCA-job o2_scan Relaxed Surface Scan Step 43 E -149.912046859912
  O       0.077067      0.000000      0.000000
  O       1.130333      0.000000      0.000000
>
2
Coordinates from ORCA-job o2_scan Relaxed Surface Scan Step 44 E -149.916971659694
  O       0.074052      0.000000      0.000000
  O       1.133348      0.000000      0.000000
>
2
Coordinates from ORCA-job o2_scan Relaxed Surface Scan Step 45 E -149.921612611008
  O       0.071037      0.000000      0.000000
  O       1.136363      0.000000      0.000000
>
2
Coordinates from ORCA-job o2_scan Relaxed Surface Scan Step 46 E -149.925981402579
  O       0.068022      0.000000      0.000000
  O       1.139378      0.000000      0.000000
>
2
Coordinates from ORCA-job o2_scan Relaxed Surface Scan Step 47 E -149.930089310183
  O       0.065007      0.000000      0.000000
  O       1.142393      0.000000      0.000000
>
2
Coordinates from ORCA-job o2_scan Relaxed Surface Scan Step 48 E -149.933947200440
  O       0.061991      0.000000      0.000000
  O       1.145409      0.000000      0.000000
>
2
Coordinates from ORCA-job o2_scan Relaxed Surface Scan Step 49 E -149.937565565572
  O       0.058976      0.000000      0.000000
  O       1.148424      0.000000      0.000000
>
2
Coordinates from ORCA-job o2_scan Relaxed Surface Scan Step 50 E -149.940954524577
  O       0.055961      0.000000      0.000000
  O       1.151439      0.000000      0.000000
>
2
Coordinates from ORCA-job o2_scan Relaxed Surface Scan Step 51 E -149.944123827255
  O       0.052946      0.000000      0.000000
  O       1.154454      0.000000      0.000000
>
2
Coordinates from ORCA-job o2_scan Relaxed Surface Scan Step 52 E -149.947082883800
  O       0.049931      0.000000      0.000000
  O       1.157469      0.000000      0.000000
>
2
Coordinates from ORCA-job o2_scan Relaxed Surface Scan Step 53 E -149.949840767017
  O       0.046916      0.000000      0.000000
  O       1.160484      0.000000      0.000000
>
2
Coordinates from ORCA-job o2_scan Relaxed Surface Scan Step 54 E -149.952406215839
  O       0.043901      0.000000      0.000000
  O       1.163499      0.000000      0.000000
>
2
Coordinates from ORCA-job o2_scan Relaxed Surface Scan Step 55 E -149.954787661324
  O       0.040886      0.000000      0.000000
  O       1.166514      0.000000      0.000000
>
2
Coordinates from ORCA-job o2_scan Relaxed Surface Scan Step 56 E -149.956993228619
  O       0.037871      0.000000      0.000000
  O       1.169529      0.000000      0.000000
>
2
Coordinates from ORCA-job o2_scan Relaxed Surface Scan Step 57 E -149.959030741953
  O       0.034856      0.000000      0.000000
  O       1.172544      0.000000      0.000000
>
2
Coordinates from ORCA-job o2_scan Relaxed Surface Scan Step 58 E -149.960907745814
  O       0.031841      0.000000      0.000000
  O       1.175559      0.000000      0.000000
>
2
Coordinates from ORCA-job o2_scan Relaxed Surface Scan Step 59 E -149.962631507819
  O       0.028826      0.000000      0.000000
  O       1.178574      0.000000      0.000000
>
2
Coordinates from ORCA-job o2_scan Relaxed Surface Scan Step 60 E -149.964209023864
  O       0.025811      0.000000      0.000000
  O       1.181589      0.000000      0.000000
>
2
Coordinates from ORCA-job o2_scan Relaxed Surface Scan Step 61 E -149.965647037152
  O       0.022795      0.000000      0.000000
  O       1.184605      0.000000      0.000000
>
2
Coordinates from ORCA-job o2_scan Relaxed Surface Scan Step 62 E -149.966952035553
  O       0.019780      0.000000      0.000000
  O       1.187620      0.000000      0.000000
>
2
Coordinates from ORCA-job o2_scan Relaxed Surface Scan Step 63 E -149.968130269170
  O       0.016765      0.000000      0.000000
  O       1.190635      0.000000      0.000000
>
2
Coordinates from ORCA-job o2_scan Relaxed Surface Scan Step 64 E -149.969187753954
  O       0.013750      0.000000      0.000000
  O       1.193650      0.000000      0.000000
>
2
Coordinates from ORCA-job o2_scan Relaxed Surface Scan Step 65 E -149.970130277251
  O       0.010735      0.000000      0.000000
  O       1.196665      0.000000      0.000000
>
2
Coordinates from ORCA-job o2_scan Relaxed Surface Scan Step 66 E -149.970963410933
  O       0.007720      0.000000      0.000000
  O       1.199680      0.000000      0.000000
>
2
Coordinates from ORCA-job o2_scan Relaxed Surface Scan Step 67 E -149.971692515669
  O       0.004705      0.000000      0.000000
  O       1.202695      0.000000      0.000000
>
2
Coordinates from ORCA-job o2_scan Relaxed Surface Scan Step 68 E -149.972322746331
  O       0.001690      0.000000      0.000000
  O       1.205710      0.000000      0.000000
>
2
Coordinates from ORCA-job o2_scan Relaxed Surface Scan Step 69 E -149.972859063102
  O      -0.001325      0.000000      0.000000
  O       1.208725      0.000000      0.000000
>
2
Coordinates from ORCA-job o2_scan Relaxed Surface Scan Step 70 E -149.973306235926
  O      -0.004340      0.000000      0.000000
  O       1.211740      0.000000      0.000000
>
2
Coordinates from ORCA-job o2_scan Relaxed Surface Scan Step 71 E -149.973668850079
  O      -0.007355      0.000000      0.000000
  O       1.214755      0.000000      0.000000
>
2
Coordinates from ORCA-job o2_scan Relaxed Surface Scan Step 72 E -149.973951315249
  O      -0.010370      0.000000      0.000000
  O       1.217770      0.000000      0.000000
>
2
Coordinates from ORCA-job o2_scan Relaxed Surface Scan Step 73 E -149.974157870132
  O      -0.013385      0.000000      0.000000
  O       1.220785      0.000000      0.000000
>
2
Coordinates from ORCA-job o2_scan Relaxed Surface Scan Step 74 E -149.974292588364
  O      -0.016401      0.000000      0.000000
  O       1.223801      0.000000      0.000000
>
2
Coordinates from ORCA-job o2_scan Relaxed Surface Scan Step 75 E -149.974359385417
  O      -0.019416      0.000000      0.000000
  O       1.226816      0.000000      0.000000
>
2
Coordinates from ORCA-job o2_scan Relaxed Surface Scan Step 76 E -149.974362024211
  O      -0.022431      0.000000      0.000000
  O       1.229831      0.000000      0.000000
>
2
Coordinates from ORCA-job o2_scan Relaxed Surface Scan Step 77 E -149.974304118561
  O      -0.025446      0.000000      0.000000
  O       1.232846      0.000000      0.000000
>
2
Coordinates from ORCA-job o2_scan Relaxed Surface Scan Step 78 E -149.974189142785
  O      -0.028461      0.000000      0.000000
  O       1.235861      0.000000      0.000000
>
2
Coordinates from ORCA-job o2_scan Relaxed Surface Scan Step 79 E -149.974020433495
  O      -0.031476      0.000000      0.000000
  O       1.238876      0.000000      0.000000
>
2
Coordinates from ORCA-job o2_scan Relaxed Surface Scan Step 80 E -149.973801196547
  O      -0.034491      0.000000      0.000000
  O       1.241891      0.000000      0.000000
>
2
Coordinates from ORCA-job o2_scan Relaxed Surface Scan Step 81 E -149.973534511081
  O      -0.037506      0.000000      0.000000
  O       1.244906      0.000000      0.000000
>
2
Coordinates from ORCA-job o2_scan Relaxed Surface Scan Step 82 E -149.973223334453
  O      -0.040521      0.000000      0.000000
  O       1.247921      0.000000      0.000000
>
2
Coordinates from ORCA-job o2_scan Relaxed Surface Scan Step 83 E -149.972870508132
  O      -0.043536      0.000000      0.000000
  O       1.250936      0.000000      0.000000
>
2
Coordinates from ORCA-job o2_scan Relaxed Surface Scan Step 84 E -149.972478760303
  O      -0.046551      0.000000      0.000000
  O       1.253951      0.000000      0.000000
>
2
Coordinates from ORCA-job o2_scan Relaxed Surface Scan Step 85 E -149.972050712597
  O      -0.049566      0.000000      0.000000
  O       1.256966      0.000000      0.000000
>
2
Coordinates from ORCA-job o2_scan Relaxed Surface Scan Step 86 E -149.971588882204
  O      -0.052581      0.000000      0.000000
  O       1.259981      0.000000      0.000000
>
2
Coordinates from ORCA-job o2_scan Relaxed Surface Scan Step 87 E -149.971095686841
  O      -0.055596      0.000000      0.000000
  O       1.262996      0.000000      0.000000
>
2
Coordinates from ORCA-job o2_scan Relaxed Surface Scan Step 88 E -149.970573450174
  O      -0.058612      0.000000      0.000000
  O       1.266012      0.000000      0.000000
>
2
Coordinates from ORCA-job o2_scan Relaxed Surface Scan Step 89 E -149.970024403116
  O      -0.061627      0.000000      0.000000
  O       1.269027      0.000000      0.000000
>
2
Coordinates from ORCA-job o2_scan Relaxed Surface Scan Step 90 E -149.969450688775
  O      -0.064642      0.000000      0.000000
  O       1.272042      0.000000      0.000000
>
2
Coordinates from ORCA-job o2_scan Relaxed Surface Scan Step 91 E -149.968854367565
  O      -0.067657      0.000000      0.000000
  O       1.275057      0.000000      0.000000
>
2
Coordinates from ORCA-job o2_scan Relaxed Surface Scan Step 92 E -149.968237417688
  O      -0.070672      0.000000      0.000000
  O       1.278072      0.000000      0.000000
>
2
Coordinates from ORCA-job o2_scan Relaxed Surface Scan Step 93 E -149.967601739941
  O      -0.073687      0.000000      0.000000
  O       1.281087      0.000000      0.000000
>
2
Coordinates from ORCA-job o2_scan Relaxed Surface Scan Step 94 E -149.966949162539
  O      -0.076702      0.000000      0.000000
  O       1.284102      0.000000      0.000000
>
2
Coordinates from ORCA-job o2_scan Relaxed Surface Scan Step 95 E -149.966281440931
  O      -0.079717      0.000000      0.000000
  O       1.287117      0.000000      0.000000
>
2
Coordinates from ORCA-job o2_scan Relaxed Surface Scan Step 96 E -149.965600262071
  O      -0.082732      0.000000      0.000000
  O       1.290132      0.000000      0.000000
>
2
Coordinates from ORCA-job o2_scan Relaxed Surface Scan Step 97 E -149.964907249529
  O      -0.085747      0.000000      0.000000
  O       1.293147      0.000000      0.000000
>
2
Coordinates from ORCA-job o2_scan Relaxed Surface Scan Step 98 E -149.964203962215
  O      -0.088762      0.000000      0.000000
  O       1.296162      0.000000      0.000000
>
2
Coordinates from ORCA-job o2_scan Relaxed Surface Scan Step 99 E -149.963491898795
  O      -0.091777      0.000000      0.000000
  O       1.299177      0.000000      0.000000
>
2
Coordinates from ORCA-job o2_scan Relaxed Surface Scan Step 100 E -149.962772501940
  O      -0.094792      0.000000      0.000000
  O       1.302192      0.000000      0.000000
>
2
Coordinates from ORCA-job o2_scan Relaxed Surface Scan Step 101 E -149.962047148312
  O      -0.097808      0.000000      0.000000
  O       1.305208      0.000000      0.000000
>
2
Coordinates from ORCA-job o2_scan Relaxed Surface Scan Step 102 E -149.961317187248
  O      -0.100823      0.000000      0.000000
  O       1.308223      0.000000      0.000000
>
2
Coordinates from ORCA-job o2_scan Relaxed Surface Scan Step 103 E -149.960583892995
  O      -0.103838      0.000000      0.000000
  O       1.311238      0.000000      0.000000
>
2
Coordinates from ORCA-job o2_scan Relaxed Surface Scan Step 104 E -149.959848497207
  O      -0.106853      0.000000      0.000000
  O       1.314253      0.000000      0.000000
>
2
Coordinates from ORCA-job o2_scan Relaxed Surface Scan Step 105 E -149.959112184160
  O      -0.109868      0.000000      0.000000
  O       1.317268      0.000000      0.000000
>
2
Coordinates from ORCA-job o2_scan Relaxed Surface Scan Step 106 E -149.958376094504
  O      -0.112883      0.000000      0.000000
  O       1.320283      0.000000      0.000000
>
2
Coordinates from ORCA-job o2_scan Relaxed Surface Scan Step 107 E -149.957641322458
  O      -0.115898      0.000000      0.000000
  O       1.323298      0.000000      0.000000
>
2
Coordinates from ORCA-job o2_scan Relaxed Surface Scan Step 108 E -149.956908922441
  O      -0.118913      0.000000      0.000000
  O       1.326313      0.000000      0.000000
>
2
Coordinates from ORCA-job o2_scan Relaxed Surface Scan Step 109 E -149.956179906327
  O      -0.121928      0.000000      0.000000
  O       1.329328      0.000000      0.000000
>
2
Coordinates from ORCA-job o2_scan Relaxed Surface Scan Step 110 E -149.955455246380
  O      -0.124943      0.000000      0.000000
  O       1.332343      0.000000      0.000000
>
2
Coordinates from ORCA-job o2_scan Relaxed Surface Scan Step 111 E -149.954735879046
  O      -0.127958      0.000000      0.000000
  O       1.335358      0.000000      0.000000
>
2
Coordinates from ORCA-job o2_scan Relaxed Surface Scan Step 112 E -149.954022701945
  O      -0.130973      0.000000      0.000000
  O       1.338373      0.000000      0.000000
>
2
Coordinates from ORCA-job o2_scan Relaxed Surface Scan Step 113 E -149.953316577305
  O      -0.133988      0.000000      0.000000
  O       1.341388      0.000000      0.000000
>
2
Coordinates from ORCA-job o2_scan Relaxed Surface Scan Step 114 E -149.952618334850
  O      -0.137004      0.000000      0.000000
  O       1.344404      0.000000      0.000000
>
2
Coordinates from ORCA-job o2_scan Relaxed Surface Scan Step 115 E -149.951928769078
  O      -0.140019      0.000000      0.000000
  O       1.347419      0.000000      0.000000
>
2
Coordinates from ORCA-job o2_scan Relaxed Surface Scan Step 116 E -149.951248642366
  O      -0.143034      0.000000      0.000000
  O       1.350434      0.000000      0.000000
>
2
Coordinates from ORCA-job o2_scan Relaxed Surface Scan Step 117 E -149.950578687603
  O      -0.146049      0.000000      0.000000
  O       1.353449      0.000000      0.000000
>
2
Coordinates from ORCA-job o2_scan Relaxed Surface Scan Step 118 E -149.949919605653
  O      -0.149064      0.000000      0.000000
  O       1.356464      0.000000      0.000000
>
2
Coordinates from ORCA-job o2_scan Relaxed Surface Scan Step 119 E -149.949272067873
  O      -0.152079      0.000000      0.000000
  O       1.359479      0.000000      0.000000
>
2
Coordinates from ORCA-job o2_scan Relaxed Surface Scan Step 120 E -149.948636718955
  O      -0.155094      0.000000      0.000000
  O       1.362494      0.000000      0.000000
>
2
Coordinates from ORCA-job o2_scan Relaxed Surface Scan Step 121 E -149.948014174119
  O      -0.158109      0.000000      0.000000
  O       1.365509      0.000000      0.000000
>
2
Coordinates from ORCA-job o2_scan Relaxed Surface Scan Step 122 E -149.947405021762
  O      -0.161124      0.000000      0.000000
  O       1.368524      0.000000      0.000000
>
2
Coordinates from ORCA-job o2_scan Relaxed Surface Scan Step 123 E -149.946809825754
  O      -0.164139      0.000000      0.000000
  O       1.371539      0.000000      0.000000
>
2
Coordinates from ORCA-job o2_scan Relaxed Surface Scan Step 124 E -149.946229123050
  O      -0.167154      0.000000      0.000000
  O       1.374554      0.000000      0.000000
>
2
Coordinates from ORCA-job o2_scan Relaxed Surface Scan Step 125 E -149.945663426019
  O      -0.170169      0.000000      0.000000
  O       1.377569      0.000000      0.000000
>
2
Coordinates from ORCA-job o2_scan Relaxed Surface Scan Step 126 E -149.945113224643
  O      -0.173184      0.000000      0.000000
  O       1.380584      0.000000      0.000000
>
2
Coordinates from ORCA-job o2_scan Relaxed Surface Scan Step 127 E -149.944578984196
  O      -0.176199      0.000000      0.000000
  O       1.383599      0.000000      0.000000
>
2
Coordinates from ORCA-job o2_scan Relaxed Surface Scan Step 128 E -149.944061147580
  O      -0.179215      0.000000      0.000000
  O       1.386615      0.000000      0.000000
>
2
Coordinates from ORCA-job o2_scan Relaxed Surface Scan Step 129 E -149.943560137194
  O      -0.182230      0.000000      0.000000
  O       1.389630      0.000000      0.000000
>
2
Coordinates from ORCA-job o2_scan Relaxed Surface Scan Step 130 E -149.943076352930
  O      -0.185245      0.000000      0.000000
  O       1.392645      0.000000      0.000000
>
2
Coordinates from ORCA-job o2_scan Relaxed Surface Scan Step 131 E -149.942610174252
  O      -0.188260      0.000000      0.000000
  O       1.395660      0.000000      0.000000
>
2
Coordinates from ORCA-job o2_scan Relaxed Surface Scan Step 132 E -149.942161962035
  O      -0.191275      0.000000      0.000000
  O       1.398675      0.000000      0.000000
>
2
Coordinates from ORCA-job o2_scan Relaxed Surface Scan Step 133 E -149.941732056367
  O      -0.194290      0.000000      0.000000
  O       1.401690      0.000000      0.000000
>
2
Coordinates from ORCA-job o2_scan Relaxed Surface Scan Step 134 E -149.941320780268
  O      -0.197305      0.000000      0.000000
  O       1.404705      0.000000      0.000000
>
2
Coordinates from ORCA-job o2_scan Relaxed Surface Scan Step 135 E -149.940928437778
  O      -0.200320      0.000000      0.000000
  O       1.407720      0.000000      0.000000
>
2
Coordinates from ORCA-job o2_scan Relaxed Surface Scan Step 136 E -149.940555315674
  O      -0.203335      0.000000      0.000000
  O       1.410735      0.000000      0.000000
>
2
Coordinates from ORCA-job o2_scan Relaxed Surface Scan Step 137 E -149.940201685003
  O      -0.206350      0.000000      0.000000
  O       1.413750      0.000000      0.000000
>
2
Coordinates from ORCA-job o2_scan Relaxed Surface Scan Step 138 E -149.939867799783
  O      -0.209365      0.000000      0.000000
  O       1.416765      0.000000      0.000000
>
2
Coordinates from ORCA-job o2_scan Relaxed Surface Scan Step 139 E -149.939553898614
  O      -0.212380      0.000000      0.000000
  O       1.419780      0.000000      0.000000
>
2
Coordinates from ORCA-job o2_scan Relaxed Surface Scan Step 140 E -149.939260206091
  O      -0.215395      0.000000      0.000000
  O       1.422795      0.000000      0.000000
>
2
Coordinates from ORCA-job o2_scan Relaxed Surface Scan Step 141 E -149.938986931604
  O      -0.218411      0.000000      0.000000
  O       1.425811      0.000000      0.000000
>
2
Coordinates from ORCA-job o2_scan Relaxed Surface Scan Step 142 E -149.938734271027
  O      -0.221426      0.000000      0.000000
  O       1.428826      0.000000      0.000000
>
2
Coordinates from ORCA-job o2_scan Relaxed Surface Scan Step 143 E -149.938502407667
  O      -0.224441      0.000000      0.000000
  O       1.431841      0.000000      0.000000
>
2
Coordinates from ORCA-job o2_scan Relaxed Surface Scan Step 144 E -149.938291511578
  O      -0.227456      0.000000      0.000000
  O       1.434856      0.000000      0.000000
>
2
Coordinates from ORCA-job o2_scan Relaxed Surface Scan Step 145 E -149.938101740956
  O      -0.230471      0.000000      0.000000
  O       1.437871      0.000000      0.000000
>
2
Coordinates from ORCA-job o2_scan Relaxed Surface Scan Step 146 E -149.937933242931
  O      -0.233486      0.000000      0.000000
  O       1.440886      0.000000      0.000000
>
2
Coordinates from ORCA-job o2_scan Relaxed Surface Scan Step 147 E -149.937786153162
  O      -0.236501      0.000000      0.000000
  O       1.443901      0.000000      0.000000
>
2
Coordinates from ORCA-job o2_scan Relaxed Surface Scan Step 148 E -149.937660596908
  O      -0.239516      0.000000      0.000000
  O       1.446916      0.000000      0.000000
>
2
Coordinates from ORCA-job o2_scan Relaxed Surface Scan Step 149 E -149.937556689925
  O      -0.242531      0.000000      0.000000
  O       1.449931      0.000000      0.000000
>
2
Coordinates from ORCA-job o2_scan Relaxed Surface Scan Step 150 E -149.937474538051
  O      -0.245546      0.000000      0.000000
  O       1.452946      0.000000      0.000000
>
2
Coordinates from ORCA-job o2_scan Relaxed Surface Scan Step 151 E -149.937414238308
  O      -0.248561      0.000000      0.000000
  O       1.455961      0.000000      0.000000
>
2
Coordinates from ORCA-job o2_scan Relaxed Surface Scan Step 152 E -149.937375879343
  O      -0.251576      0.000000      0.000000
  O       1.458976      0.000000      0.000000
>
2
Coordinates from ORCA-job o2_scan Relaxed Surface Scan Step 153 E -149.937359541502
  O      -0.254591      0.000000      0.000000
  O       1.461991      0.000000      0.000000
>
2
Coordinates from ORCA-job o2_scan Relaxed Surface Scan Step 154 E -149.937365356132
  O      -0.257607      0.000000      0.000000
  O       1.465007      0.000000      0.000000
>
2
Coordinates from ORCA-job o2_scan Relaxed Surface Scan Step 155 E -149.937393213728
  O      -0.260622      0.000000      0.000000
  O       1.468022      0.000000      0.000000
>
2
Coordinates from ORCA-job o2_scan Relaxed Surface Scan Step 156 E -149.937443403028
  O      -0.263637      0.000000      0.000000
  O       1.471037      0.000000      0.000000
>
2
Coordinates from ORCA-job o2_scan Relaxed Surface Scan Step 157 E -149.937526697617
  O      -0.266652      0.000000      0.000000
  O       1.474052      0.000000      0.000000
>
2
Coordinates from ORCA-job o2_scan Relaxed Surface Scan Step 158 E -149.690609722995
  O      -0.269667      0.000000      0.000000
  O       1.477067      0.000000      0.000000
>
2
Coordinates from ORCA-job o2_scan Relaxed Surface Scan Step 159 E -149.688354726477
  O      -0.272682      0.000000      0.000000
  O       1.480082      0.000000      0.000000
>
2
Coordinates from ORCA-job o2_scan Relaxed Surface Scan Step 160 E -149.686200255547
  O      -0.275697      0.000000      0.000000
  O       1.483097      0.000000      0.000000
>
2
Coordinates from ORCA-job o2_scan Relaxed Surface Scan Step 161 E -149.684141359278
  O      -0.278712      0.000000      0.000000
  O       1.486112      0.000000      0.000000
>
2
Coordinates from ORCA-job o2_scan Relaxed Surface Scan Step 162 E -149.682172805837
  O      -0.281727      0.000000      0.000000
  O       1.489127      0.000000      0.000000
>
2
Coordinates from ORCA-job o2_scan Relaxed Surface Scan Step 163 E -149.680289686188
  O      -0.284742      0.000000      0.000000
  O       1.492142      0.000000      0.000000
>
2
Coordinates from ORCA-job o2_scan Relaxed Surface Scan Step 164 E -149.678487383840
  O      -0.287757      0.000000      0.000000
  O       1.495157      0.000000      0.000000
>
2
Coordinates from ORCA-job o2_scan Relaxed Surface Scan Step 165 E -149.676761561872
  O      -0.290772      0.000000      0.000000
  O       1.498172      0.000000      0.000000
>
2