
                                 *****************
                                 * O   R   C   A *
                                 *****************

                                            #,                                       
                                            ###                                      
                                            ####                                     
                                            #####                                    
                                            ######                                   
                                           ########,                                 
                                     ,,################,,,,,                         
                               ,,#################################,,                 
                          ,,##########################################,,             
                       ,#########################################, ''#####,          
                    ,#############################################,,   '####,        
                  ,##################################################,,,,####,       
                ,###########''''           ''''###############################       
              ,#####''   ,,,,##########,,,,          '''####'''          '####       
            ,##' ,,,,###########################,,,                        '##       
           ' ,,###''''                  '''############,,,                           
         ,,##''                                '''############,,,,        ,,,,,,###''
      ,#''                                            '''#######################'''  
     '                                                          ''''####''''         
             ,#######,   #######,   ,#######,      ##                                
            ,#'     '#,  ##    ##  ,#'     '#,    #''#        ,####,    ,#,          
            ##       ##  ##   ,#'  ##            #'  '#       #'       ,# #          
            ##       ##  #######   ##           ,######,      #####,      #          
            '#,     ,#'  ##    ##  '#,     ,#' ,#      #,     #,   #      #          
             '#######'   ##     ##  '#######'  #'      '#     '####' #    #          



                #########################################################
                #                        -***-                          #
                #          Department of theory and spectroscopy        #
                #                                                       #
                #                      Frank Neese                      #
                #                                                       #
                #     Directorship, Architecture, Infrastructure        #
                #                    SHARK, DRIVERS                     #
                #        Core code/Algorithms in most modules           #
                #                                                       #
                #        Max Planck Institute fuer Kohlenforschung      #
                #                Kaiser Wilhelm Platz 1                 #
                #                 D-45470 Muelheim/Ruhr                 #
                #                      Germany                          #
                #                                                       #
                #                  All rights reserved                  #
                #                        -***-                          #
                #########################################################


                         Program Version 6.1.0  -  RELEASE   -
                                (GIT: $679e74b$)
                          ($2025-06-10 18:02:51 +0200$)


 With contributions from (in alphabetic order):
[Max-Planck-Institut fuer Kohlenforschung]                               
  Daniel Aravena         : Magnetic Suceptibility                        
  Michael Atanasov       : Ab Initio Ligand Field Theory (pilot matlab implementation)
  Alexander A. Auer      : GIAO ZORA, VPT2 properties, NMR spectrum      
  Ute Becker             : All parallelization in ORCA, NUMFREQ, NUMCALC 
  Giovanni Bistoni       : ED, misc. LED, open-shell LED, HFLD           
  Dmytro Bykov           : pre 5.0 version of the SCF Hessian            
  Marcos Casanova-Páez   : Triplet and SCS-CIS(D). UHF-(DLPNO)-IP/EA/STEOM-CCSD. UHF-CVS-IP/STEOM-CCSD   
  Vijay G. Chilkuri      : MRCI spin determinant printing, contributions to CSF-ICE 
  Pauline Colinet        : FMM embedding                                 
  Dipayan Datta          : RHF DLPNO-CCSD density                        
  Achintya Kumar Dutta   : EOM-CC, STEOM-CC                              
  Nicolas Foglia         : Exact transition moments, OPA infrastructure, MCD improvements    
  Dmitry Ganyushin       : Spin-Orbit,Spin-Spin,Magnetic field MRCI      
  Miquel Garcia-Rates    : C-PCM and meta-GGA Hessian, CCSD/C-PCM, Gaussian charge scheme 
  Tiago L. C. Gouveia    : GS-ROHF, GS-ROCIS                             
  Yang Guo               : DLPNO-NEVPT2, F12-NEVPT2, CIM, IAO-localization        
  Andreas Hansen         : Spin unrestricted coupled pair/coupled cluster methods 
  Ingolf Harden          : AUTO-CI MPn and infrastructure                
  Benjamin Helmich-Paris : MC-RPA, TRAH-(SCF,CASSCF), AVAS, COSX integrals, SCF dyn. polar., MC-PDFT, srDFT 
  Lee Huntington         : MR-EOM, pCC                                   
  Robert Izsak           : Overlap fitted RIJCOSX, COSX-SCS-MP3, EOM     
  Riya Kayal             : Wick's Theorem for AUTO-CI, AUTO-CI UHF-CCSDT 
  Emily Kempfer          : AUTO-CI RHF CISDT and CCSDT, approximate NEVPT4
  Christian Kollmar      : KDIIS, OOCD, Brueckner-CCSD(T), CCSD density, CASPT2, CASPT2-K, improved NEVPT2 
  Axel Koslowski         : Symmetry handling                             
  Simone Kossmann        : meta-GGA functionals, TD-DFT gradient, OOMP2, (MP2 Hessian; deprecated post 5.0) 
  Lucas Lang             : DCDCAS, Hyperfine gauge corrections, ICE-SOC+SSC
  Marvin Lechner         : AUTO-CI (C++ implementation), FIC-MRCC        
  Spencer Leger          : CASSCF response                               
  Dagmar Lenk            : GEPOL surface, SMD, ORCA-2-JSON               
  Dimitrios Liakos       : Extrapolation schemes; Compound Job, Property file
  Dimitrios Manganas     : Further ROCIS development; embedding schemes. LFT, Crystal Embedding 
  Dimitrios Pantazis     : SARC Basis sets                               
  Anastasios Papadopoulos: AUTO-CI, single reference methods and gradients 
  Taras Petrenko         : pre 6.0 DFT Hessian and TD-DFT gradient,  ECA, NRVS 
  Petra Pikulova         : Analytic Raman intensities                    
  Peter Pinski           : DLPNO-MP2, DLPNO-MP2 Gradient                 
  Shashank Vittal Rao    : ES-AILFT, MagRelax                            
  Christoph Reimann      : Effective Core Potentials                     
  Marius Retegan         : Local ZFS, SOC                                
  Christoph Riplinger    : Optimizer, TS searches, QM/MM, DLPNO-CCSD(T), (RO)-DLPNO pert. Triples 
  Michael Roemelt        : Original ROCIS implementation, recursive CI coupling coefficients
  Masaaki Saitow         : Open-shell DLPNO-CCSD energy and density      
  Barbara Sandhoefer     : DKH picture change effects                    
  Yorick L. A. Schmerwitz: GMF and freeze-and-release deltaSCF, NEB S-IDPP initial path                    
  Kantharuban Sivalingam : CASSCF convergence/infrastructure, NEVPT2, NEVPT3, NEVPT4(SD), FIC-MRCI and CEPA variants
  Bernardo de Souza      : ESD, SOC TD-DFT                               
  Georgi L. Stoychev     : AutoAux, RI-MP2 NMR, DLPNO-MP2 response, X2C  
  Van Anh Tran           : RI-MP2 g-tensors                              
  Willem Van den Heuvel  : Paramagnetic NMR                              
  Zikuan Wang            : NOTCH, Electric field optimization            
  Frank Wennmohs         : Technical directorship and infrastructure     
  Hang Xu                : AUTO-CI-Response properties                   
                                                                         
[FACCTs GmbH]                                                            
  Markus Bursch, Nicolas Foglia, Miquel Garcia-Rates, Ingolf Harden, Hagen Neugebauer, Anastasios Papadopoulos, 
  Christoph Riplinger, Bernardo de Souza, Georgi L. Stoychev                                                    
                                                                 
  APM, various basis sets, CI-OPT, improved COSX, DLPNO-Multilevel,           
  DOCKER, DRACO, updates on ESD, Fragmentator, GOAT, IRC, LR-CPCM, L-BFGS, MBIS, meta-GGA TD-DFT gradient, ML-optimized integration grids, 
  MM, NACMEs, nearIR, NEB, NEB-TS, NL-DFT gradient (VV10), 2- and 3-layer-ONIOM, interface openCOSMO-RS, QMMM,   
  Crystal-QMMM, RESP, rigid body optimization, SF, symmetry and pop. for TD-DFT, various functionals, SOLVATOR                                   
                                                                         
[Other institutions]                                                     
  V. Asgeirsson          : NEB                                           
  Christoph Bannwarth    : sTDA-DFT, sTD-DFT, PBEh-3c, B97-3c, D3        
  Giovanni Bistoni       : ETS/NOCV, ADLD/ADEX, COVALED                  
  Martin Brehm           : Molecular dynamics                            
  Ronald Cardenas        : ETS/NOCV                                      
  Martina Colucci        : COVALED                                       
  Sebastian Ehlert       : rSCAN, r2SCAN, r2SCAN-3c, D4, dhf basis sets  
  Marvin Friede          : D4 for Fr, Ra, Ac-Lr                          
  Lars Goerigk           : TD-DFT with DH, B97 family of functionals     
  Stefan Grimme          : VdW corrections, initial TS optimization, DFT functionals, gCP, sTDA/sTD-DF 
  Waldemar Hujo          : DFT-NL                                        
  H. Jonsson             : NEB                                           
  Holger Kruse           : gCP                                           
  Marcel Mueller         : wB97X-3c, vDZP basis set                      
  Hagen Neugebauer       : wr2SCAN, Native XTB                           
  Gianluca Regni         : ADLD/ADEX                                     
  Tobias Risthaus        : pre 6.0 range-separated hybrid DFT and stability analysis
  Lukas Wittmann         : regularized MP2, r2SCAN double-hybrids, wr2SCAN        
                                                                         
We gratefully acknowledge several colleagues who have allowed us to      
interface, adapt or use parts of their codes:                            
  Ed Valeev, F. Pavosevic, A. Kumar             : LibInt (2-el integral package), F12 methods 
  Garnet Chan, S. Sharma, J. Yang, R. Olivares  : DMRG                   
  Ulf Ekstrom                                   : XCFun DFT Library      
  Mihaly Kallay                                 : mrcc  (arbitrary order and MRCC methods)
  Frank Weinhold                                : gennbo (NPA and NBO analysis)           
  Simon Mueller                                 : openCOSMO-RS                            
  Christopher J. Cramer and Donald G. Truhlar   : smd solvation model                     
  S Lehtola, MJT Oliveira, MAL Marques          : LibXC Library                           
  Liviu Ungur et al                             : ANISO software                          


 Your calculation uses the libint2 library for the computation of 2-el integrals
 For citations please refer to: http://libint.valeyev.net

 Your ORCA version has been built with support for libXC version: 7.0.0
 For citations please refer to: https://libxc.gitlab.io

 This ORCA versions uses:
   CBLAS   interface :  Fast vector & matrix operations
   LAPACKE interface :  Fast linear algebra routines
   SCALAPACK package :  Parallel linear algebra routines
   Shared memory     :  Shared parallel matrices
   BLAS/LAPACK       :  OpenBLAS 0.3.29  USE64BITINT DYNAMIC_ARCH NO_AFFINITY Zen SINGLE_THREADED
        Core in use  :  Zen
   Copyright (c) 2011-2014, The OpenBLAS Project


  ***********************************
  * Starting time: Thu Sep  4 15:40:36 2025
  * Host name:     ae2-c724
  * Process ID:    861115
  * Working dir.:  /home/jsc/Lehre/TCGPR/practical_course_bachelor/h2co3/mp2_6_311_g_dp
  ***********************************

================================================================================

----- Orbital basis set information -----
Your calculation utilizes the basis: 6-311G(d,p)
   H, Li - Ne  : R. Krishnan, J. S. Binkley, R. Seeger and J. A. Pople, J. Chem. Phys. 72, 650 (1980).
   Na - Ar     : A. D. McLean and G. S. Chandler J. Chem. Phys. 72, 5639, (1980).
   K  - Ca     : J.-P. Blaudeau, M. P. McGrath, L. A. Curtiss and L. Radom, J. Chem. Phys. 107, 5016 (1997).
   Ga - Kr     : L. A. Curtiss, M. P. McGrath, J.-P. Blandeau, N. E. Davis, R. C. Binning and L. Radom, J. Chem. Phys. 103, 6104 (1995).
   Pol./Diff.
   H, Li - Cl  : T. Clark, J. Chandrasekhar and P. v. R. Schleyer, J. Comp. Chem. 4, 294 (1983).
   H - Ne      : M. J. Frisch, J. A. Pople and J. S. Binkley, J. Chem. Phys. 80, 3265 (1984).

================================================================================
                                        WARNINGS
                       Please study these warnings very carefully!
================================================================================


WARNING: Analytical and numerical frequencies both set to true
  ===> : Disabling Anfreq

WARNING: The frozen-core approximation for MP2-gradient calculations is turned on by default.

WARNING: Geometry Optimization
  ===> : Switching off AutoStart
         For restart on a previous wavefunction, please use MOREAD

WARNING: Post HF methods need fully converged wavefunctions
  ===> : Setting SCFConvForced true
         You can overwrite this default with %scf ConvForced false 


================================================================================
                                       INPUT FILE
================================================================================
NAME = h2co3.inp
|  1> ! MP2 6-311G(d,p) OPT FREQ NUMFREQ
|  2> * xyz 0 1
|  3> C   0.000000   0.000000   0.000000
|  4> O   1.230000   0.000000   0.000000
|  5> O  -0.665000   1.151814   0.000000
|  6> O  -0.665000  -1.151814   0.000000
|  7> H  -0.022635   1.865233   0.000000
|  8> H  -0.022635  -1.865233   0.000000
|  9> *
| 10> 
| 11>                          ****END OF INPUT****
================================================================================

                       *****************************
                       * Geometry Optimization Run *
                       *****************************

Geometry optimization settings:
Update method            Update   .... BFGS
Choice of coordinates    CoordSys .... (2022) Redundant Internals
Initial Hessian          InHess   .... Almloef's Model
Max. no of cycles        MaxIter  .... 50

Convergence Tolerances:
Energy Change            TolE     ....  5.0000e-06 Eh
Max. Gradient            TolMAXG  ....  3.0000e-04 Eh/bohr
RMS Gradient             TolRMSG  ....  1.0000e-04 Eh/bohr
Max. Displacement        TolMAXD  ....  4.0000e-03 bohr
RMS Displacement         TolRMSD  ....  2.0000e-03 bohr
Strict Convergence                .... False

------------------------------------------------------------------------------
                        ORCA OPTIMIZATION COORDINATE SETUP
------------------------------------------------------------------------------

The optimization will be done in redundant internal coordinates (2022)
Making redundant internal coordinates   ...  (2022 redundants) done
Evaluating the initial hessian          ...  (Almloef) done
Evaluating the coordinates              ...  done
Calculating the B-matrix                .... done
Calculating the G-matrix                .... done
The number of degrees of freedom        ....   14

    -----------------------------------------------------------------
                    Redundant Internal Coordinates


    -----------------------------------------------------------------
         Definition                    Initial Value    Approx d2E/dq
    -----------------------------------------------------------------
      1. B(O   1,C   0)                  1.2300         1.007269   
      2. B(O   2,C   0)                  1.3300         0.697592   
      3. B(O   3,C   0)                  1.3300         0.697592   
      4. B(H   4,O   2)                  0.9600         0.519957   
      5. B(H   5,O   3)                  0.9600         0.519957   
      6. A(O   1,C   0,O   3)          120.0000         0.478061   
      7. A(O   2,C   0,O   3)          120.0000         0.447020   
      8. A(O   1,C   0,O   2)          120.0000         0.478061   
      9. A(C   0,O   2,H   4)          108.0000         0.377720   
     10. A(C   0,O   3,H   5)          108.0000         0.377720   
     11. D(H   4,O   2,C   0,O   1)      0.0000         0.036418   
     12. D(H   4,O   2,C   0,O   3)    180.0000         0.036418   
     13. D(H   5,O   3,C   0,O   1)      0.0000         0.036418   
     14. D(H   5,O   3,C   0,O   2)    180.0000         0.036418   
    -----------------------------------------------------------------

Number of atoms                         .... 6
Number of degrees of freedom            .... 14


         *************************************************************
         *                GEOMETRY OPTIMIZATION CYCLE   1            *
         *************************************************************
---------------------------------
CARTESIAN COORDINATES (ANGSTROEM)
---------------------------------
  C      0.000000    0.000000    0.000000
  O      1.230000    0.000000    0.000000
  O     -0.665000    1.151814    0.000000
  O     -0.665000   -1.151814    0.000000
  H     -0.022635    1.865233    0.000000
  H     -0.022635   -1.865233    0.000000

----------------------------
CARTESIAN COORDINATES (A.U.)
----------------------------
  NO LB      ZA    FRAG     MASS         X           Y           Z
   0 C     6.0000    0    12.011    0.000000    0.000000    0.000000
   1 O     8.0000    0    15.999    2.324363    0.000000    0.000000
   2 O     8.0000    0    15.999   -1.256668    2.176613    0.000000
   3 O     8.0000    0    15.999   -1.256668   -2.176613    0.000000
   4 H     1.0000    0     1.008   -0.042774    3.524780    0.000000
   5 H     1.0000    0     1.008   -0.042774   -3.524780    0.000000

--------------------------------
INTERNAL COORDINATES (ANGSTROEM)
--------------------------------
 C      0   0   0     0.000000000000     0.00000000     0.00000000
 O      1   0   0     1.230000000000     0.00000000     0.00000000
 O      1   2   0     1.330000184435   119.99999541     0.00000000
 O      1   2   3     1.330000184435   119.99999541   180.00000000
 H      3   1   2     0.959999720201   108.00002024     0.00000000
 H      4   1   2     0.959999720201   108.00002024     0.00000000

---------------------------
INTERNAL COORDINATES (A.U.)
---------------------------
 C      0   0   0     0.000000000000     0.00000000     0.00000000
 O      1   0   0     2.324363144723     0.00000000     0.00000000
 O      1   2   0     2.513336106646   119.99999541     0.00000000
 O      1   2   3     2.513336106646   119.99999541   180.00000000
 H      3   1   2     1.814136559821   108.00002024     0.00000000
 H      4   1   2     1.814136559821   108.00002024     0.00000000

---------------------
BASIS SET INFORMATION
---------------------
There are 3 groups of distinct atoms

 Group   1 Type C   : 11s5p1d contracted to 4s3p1d pattern {6311/311/1}
 Group   2 Type O   : 11s5p1d contracted to 4s3p1d pattern {6311/311/1}
 Group   3 Type H   : 5s1p contracted to 3s1p pattern {311/1}

Atom   0C    basis set group =>   1
Atom   1O    basis set group =>   2
Atom   2O    basis set group =>   2
Atom   3O    basis set group =>   2
Atom   4H    basis set group =>   3
Atom   5H    basis set group =>   3
------------------------------------------------------------------------------
                             ORCA STARTUP CALCULATIONS
------------------------------------------------------------------------------
------------------------------------------------------------------------------
                   ___                                                        
                  /   \      - P O W E R E D   B Y -                         
                 /     \                                                     
                 |  |  |   _    _      __       _____    __    __             
                 |  |  |  | |  | |    /  \     |  _  \  |  |  /  |          
                  \  \/   | |  | |   /    \    | | | |  |  | /  /          
                 / \  \   | |__| |  /  /\  \   | |_| |  |  |/  /          
                |  |  |   |  __  | /  /__\  \  |    /   |      \           
                |  |  |   | |  | | |   __   |  |    \   |  |\   \          
                \     /   | |  | | |  |  |  |  | |\  \  |  | \   \       
                 \___/    |_|  |_| |__|  |__|  |_| \__\ |__|  \__/        
                                                                              
                      - O R C A' S   B I G   F R I E N D -                    
                                      &                                       
                       - I N T E G R A L  F E E D E R -                       
                                                                              
 v1 FN, 2020, v2 2021, v3 2022-2024                                           
------------------------------------------------------------------------------


----------------------
SHARK INTEGRAL PACKAGE
----------------------

Number of atoms                             ...      6
Number of basis functions                   ...     84
Number of shells                            ...     40
Maximum angular momentum                    ...      2
Integral batch strategy                     ... SHARK/LIBINT Hybrid
RI-J (if used) integral strategy            ... SPLIT-RIJ (Revised 2003 algorithm where possible)
Printlevel                                  ...      1
Contraction scheme used                     ... SEGMENTED contraction
Prescreening option                         ... SCHWARTZ
   Thresh                                   ... 2.500e-11
   Tcut                                     ... 2.500e-12
   Tpresel                                  ... 2.500e-12 
Coulomb Range Separation                    ... NOT USED
Exchange Range Separation                   ... NOT USED
Multipole approximations                    ... NOT USED
Finite Nucleus Model                        ... NOT USED
CABS basis                                  ... NOT available
Auxiliary Coulomb fitting basis             ... NOT available
Auxiliary J/K fitting basis                 ... NOT available
Auxiliary Correlation fitting basis         ... NOT available
Auxiliary 'external' fitting basis          ... NOT available

Checking pre-screening integrals            ... done (  0.0 sec) Dimension = 40
   => SHARK Basis and OBASIS are compatible. Storing Pre-screening
Shell pair information
Shell pair cut-off parameter TPreSel        ...   2.5e-12
Total number of shell pairs                 ...       820
Shell pairs after pre-screening             ...       791
Total number of primitive shell pairs       ...      3330
Primitive shell pairs kept                  ...      2521
          la=0 lb=0:    236 shell pairs
          la=1 lb=0:    296 shell pairs
          la=1 lb=1:    105 shell pairs
          la=2 lb=0:     88 shell pairs
          la=2 lb=1:     56 shell pairs
          la=2 lb=2:     10 shell pairs

Checking whether 4 symmetric matrices of dimension 84 fit in memory
:Max Core in MB      =   4096.00
 MB in use           =      2.25
 MB left             =   4093.75
 MB needed           =      0.11
 Data fit in memory  = YES
Calculating Nuclear repulsion               ... done (  0.0 sec) ENN=    122.971964532274 Eh

Diagonalization of the overlap matrix:
Smallest eigenvalue                        ... 7.690e-03
Time for diagonalization                   ...    0.001 sec
Threshold for overlap eigenvalues          ... 1.000e-07
Number of eigenvalues below threshold      ... 0
Time for construction of square roots      ...    0.000 sec
Total time needed                          ...    0.002 sec

-------------------
DFT GRID GENERATION
-------------------

General Integration Accuracy     IntAcc      ... 4.388
Radial Grid Type                 RadialGrid  ... OptM3 with GC (2021)
Angular Grid (max. ang.)         AngularGrid ... 4 (Lebedev-302)
Angular grid pruning method      GridPruning ... 4 (adaptive)
Weight generation scheme         WeightScheme... mBecke (2022)
Basis function cutoff            BFCut       ... 1.0000e-11
Integration weight cutoff        WCut        ... 1.0000e-14
Partially contracted basis set               ... off
Rotationally invariant grid construction     ... off
Angular grids for H and He will be reduced by one unit

Total number of grid points                  ...    30967
Total number of batches                      ...      487
Average number of points per batch           ...       63
Average number of grid points per atom       ...     5161
Grids setup in   0.2 sec
Initializing property integral containers    ... done (  0.0 sec)

SHARK setup successfully completed in   0.2 seconds

Maximum memory used throughout the entire STARTUP-calculation: 12.1 MB
-------------------------------------------------------------------------------
                                 ORCA GUESS
                   Start orbitals & Density for SCF / CASSCF
-------------------------------------------------------------------------------

------------
SCF SETTINGS
------------
Hamiltonian:
 Ab initio Hamiltonian  Method          .... Hartree-Fock(GTOs)


General Settings:
 Integral files         IntName         .... h2co3
 Hartree-Fock type      HFTyp           .... RHF
 Total Charge           Charge          ....    0
 Multiplicity           Mult            ....    1
 Number of Electrons    NEL             ....   32
 Basis Dimension        Dim             ....   84
 Nuclear Repulsion      ENuc            ....    122.9719645323 Eh

Convergence Acceleration:
 AO-DIIS                CNVDIIS         .... on
   Start iteration      DIISMaxIt       ....    12
   Startup error        DIISStart       ....  0.200000
   # of expansion vecs  DIISMaxEq       ....     5
   Bias factor          DIISBfac        ....   1.050
   Max. coefficient     DIISMaxC        ....  10.000
 MO-DIIS                CNVKDIIS        .... off
 Trust-Rad. Augm. Hess. CNVTRAH         .... auto
   Auto Start mean grad. ratio tolernc. ....  1.125000
   Auto Start start iteration           ....    50
   Auto Start num. interpolation iter.  ....    10
   Max. Number of Micro iterations      ....    24
   Max. Number of Macro iterations      .... Maxiter - #DIIS iter
   Number of Davidson start vectors     ....     2
   Converg. threshold    (grad. norm)   ....   1.000e-05
   Grad. Scal. Fac. for Micro threshold ....   0.100
   Minimum threshold for Micro iter.    ....   1.000e-02
   NR start threshold (gradient norm)   ....   1.000e-04
   Initial trust radius                 ....   0.400
   Minimum AH scaling param. (alpha)    ....   1.000
   Maximum AH scaling param. (alpha)    .... 1000.000
   Quad. conv. algorithm                .... NR
   White noise on init. David. guess    .... on
   Maximum white noise                  ....   0.010
   Pseudo random numbers                .... off
   Inactive MOs                         .... canonical
   Orbital update algorithm             .... Taylor
   Preconditioner                       .... Diag
   Full preconditioner red. dimension   ....   250
 SOSCF                 CNVSOSCF           .... on
   Start iteration     SOSCFMaxIt         ....   150
   Startup grad/error  SOSCFStart         ....  0.003300
   Hessian update      SOSCFHessUp        .... L-BFGS
   Autom. constraints  SOSCFAutoConstrain .... off
 Level Shifting         CNVShift        .... on
   Level shift para.    LevelShift      ....    0.2500
   Turn off err/grad.   ShiftErr        ....    0.0010
 Zerner damping         CNVZerner       .... off
 Static damping         CNVDamp         .... on
   Fraction old density DampFac         ....    0.7000
   Max. Damping (<1)    DampMax         ....    0.9800
   Min. Damping (>=0)   DampMin         ....    0.0000
   Turn off err/grad.   DampErr         ....    0.1000

SCF Procedure:
 Maximum # iterations   MaxIter         ....   125
 SCF integral mode      SCFMode         .... Direct
   Integral package                     .... SHARK and LIBINT hybrid scheme
 Reset frequency        DirectResetFreq ....    20
 Integral Threshold     Thresh          ....  2.500e-11 Eh
 Primitive CutOff       TCut            ....  2.500e-12 Eh

Convergence Tolerance:
 Convergence Check Mode ConvCheckMode   .... Total+1el-Energy
 Convergence forced     ConvForced      .... 1
 Energy Change          TolE            ....  1.000e-08 Eh
 1-El. energy change                    ....  1.000e-05 Eh
 Orbital Gradient       TolG            ....  1.000e-05
 Orbital Rotation angle TolX            ....  1.000e-05
 DIIS Error             TolErr          ....  5.000e-07

------------------------------
INITIAL GUESS: MODEL POTENTIAL
------------------------------
Loading Hartree-Fock densities                     ... done
Calculating cut-offs                               ... done
Initializing the effective Hamiltonian             ... done
Setting up the integral package (SHARK)            ... done
Starting the Coulomb interaction                   ... done (   0.0 sec)
Making the grid                                    ... done (   0.0 sec)
Mapping shells                                     ... done
Starting the XC term evaluation                    ... done (   0.0 sec)
Transforming the Hamiltonian                       ... done (   0.0 sec)
Diagonalizing the Hamiltonian                      ... done (   0.0 sec)
Back transforming the eigenvectors                 ... done (   0.0 sec)
Now organizing SCF variables                       ... done
                      ------------------
                      INITIAL GUESS DONE (   0.1 sec)
                      ------------------
             **** ENERGY FILE WAS UPDATED (h2co3.en.tmp) ****
Finished Guess after   0.1 sec
Maximum memory used throughout the entire GUESS-calculation: 5.1 MB

-------------------------------------------------------------------------------------------
                                      ORCA LEAN-SCF
                              memory conserving SCF solver
-------------------------------------------------------------------------------------------

----------------------------------------D-I-I-S--------------------------------------------
Iteration    Energy (Eh)           Delta-E    RMSDP     MaxDP     DIISErr   Damp  Time(sec)
-------------------------------------------------------------------------------------------
               ***  Starting incremental Fock matrix formation  ***
    1    -263.5122668053583084     0.00e+00  2.82e-03  5.16e-02  3.85e-01  0.700   0.3
    2    -263.5900325423958748    -7.78e-02  1.87e-03  2.95e-02  2.29e-01  0.700   0.5
                               ***Turning on AO-DIIS***
    3    -263.6327007595816667    -4.27e-02  7.51e-04  9.52e-03  1.27e-01  0.700   0.3
    4    -263.6592665279437142    -2.66e-02  5.10e-04  6.06e-03  8.89e-02  0.700   0.2
    5    -263.6772633057534563    -1.80e-02  1.32e-03  1.46e-02  6.51e-02  0.000   0.2
    6    -263.7189983528187440    -4.17e-02  2.15e-04  4.25e-03  6.02e-03  0.000   0.3
                              *** Initializing SOSCF ***
---------------------------------------S-O-S-C-F--------------------------------------
Iteration    Energy (Eh)           Delta-E    RMSDP     MaxDP     MaxGrad    Time(sec)
--------------------------------------------------------------------------------------
    7    -263.7191399984728264    -1.42e-04  1.21e-04  1.31e-03  2.13e-03     0.2
               *** Restarting incremental Fock matrix formation ***
    8    -263.7191788515812618    -3.89e-05  6.75e-05  7.67e-04  1.26e-03     0.3
    9    -263.7191893877125040    -1.05e-05  8.22e-05  1.00e-03  3.99e-04     0.2
   10    -263.7191933109820070    -3.92e-06  1.40e-05  2.30e-04  2.14e-04     0.2
   11    -263.7191936651640845    -3.54e-07  3.78e-06  5.12e-05  5.59e-05     0.2
   12    -263.7191936901388090    -2.50e-08  2.18e-06  4.86e-05  1.92e-05     0.2
   13    -263.7191936961883698    -6.05e-09  4.89e-07  6.78e-06  4.41e-06     0.2
                 **** Energy Check signals convergence ****

               *****************************************************
               *                     SUCCESS                       *
               *           SCF CONVERGED AFTER  13 CYCLES          *
               *****************************************************

             **** ENERGY FILE WAS UPDATED (h2co3.en.tmp) ****

----------------
TOTAL SCF ENERGY
----------------

Total Energy       :       -263.71919369656007 Eh           -7176.16409 eV

Components:
Nuclear Repulsion  :        122.97196453227441 Eh            3346.23727 eV
Electronic Energy  :       -386.69115822883447 Eh          -10522.40136 eV
One Electron Energy:       -606.50816408767628 Eh          -16503.92619 eV
Two Electron Energy:        219.81700585884181 Eh            5981.52482 eV

Virial components:
Potential Energy   :       -527.15472417054661 Eh          -14344.60931 eV
Kinetic Energy     :        263.43553047398649 Eh            7168.44522 eV
Virial Ratio       :          2.00107678422141

---------------
SCF CONVERGENCE
---------------

  Last Energy change         ...    6.0496e-09  Tolerance :   1.0000e-08
  Last MAX-Density change    ...    6.7751e-06  Tolerance :   1.0000e-07
  Last RMS-Density change    ...    4.8940e-07  Tolerance :   5.0000e-09
  Last DIIS Error            ...    2.1325e-03  Tolerance :   5.0000e-07
  Last Orbital Gradient      ...    4.4148e-06  Tolerance :   1.0000e-05
  Last Orbital Rotation      ...    1.1911e-05  Tolerance :   1.0000e-05


----------------
ORBITAL ENERGIES
----------------

  NO   OCC          E(Eh)            E(eV) 
   0   2.0000     -20.631608      -561.4146 
   1   2.0000     -20.631589      -561.4141 
   2   2.0000     -20.537091      -558.8427 
   3   2.0000     -11.453838      -311.6748 
   4   2.0000      -1.523568       -41.4584 
   5   2.0000      -1.432180       -38.9716 
   6   2.0000      -1.350698       -36.7543 
   7   2.0000      -0.911122       -24.7929 
   8   2.0000      -0.768421       -20.9098 
   9   2.0000      -0.723280       -19.6815 
  10   2.0000      -0.687787       -18.7156 
  11   2.0000      -0.685240       -18.6463 
  12   2.0000      -0.591647       -16.0995 
  13   2.0000      -0.564278       -15.3548 
  14   2.0000      -0.474939       -12.9238 
  15   2.0000      -0.469788       -12.7836 
  16   0.0000       0.138015         3.7556 
  17   0.0000       0.165226         4.4960 
  18   0.0000       0.207717         5.6523 
  19   0.0000       0.374435        10.1889 
  20   0.0000       0.448301        12.1989 
  21   0.0000       0.538373        14.6499 
  22   0.0000       0.545205        14.8358 
  23   0.0000       0.554167        15.0797 
  24   0.0000       0.571764        15.5585 
  25   0.0000       0.617737        16.8095 
  26   0.0000       0.695752        18.9324 
*Only the first 10 virtual orbitals were printed.

                    ********************************
                    * MULLIKEN POPULATION ANALYSIS *
                    ********************************

-----------------------
MULLIKEN ATOMIC CHARGES
-----------------------
   0 C :    0.708001
   1 O :   -0.524569
   2 O :   -0.394320
   3 O :   -0.394320
   4 H :    0.302604
   5 H :    0.302604
Sum of atomic charges:    0.0000000

--------------------------------
MULLIKEN REDUCED ORBITAL CHARGES
--------------------------------
  0 C s       :     2.854321  s :     2.854321
      pz      :     0.670442  p :     2.152805
      px      :     0.771748
      py      :     0.710615
      dz2     :     0.011204  d :     0.284872
      dxz     :     0.055321
      dyz     :     0.038457
      dx2y2   :     0.069543
      dxy     :     0.110347

  1 O s       :     3.860139  s :     3.860139
      pz      :     1.529593  p :     4.646459
      px      :     1.288490
      py      :     1.828375
      dz2     :     0.002202  d :     0.017972
      dxz     :     0.005307
      dyz     :     0.000015
      dx2y2   :     0.007450
      dxy     :     0.002998

  2 O s       :     3.791111  s :     3.791111
      pz      :     1.830013  p :     4.588044
      px      :     1.579565
      py      :     1.178467
      dz2     :     0.002389  d :     0.015164
      dxz     :     0.001559
      dyz     :     0.000951
      dx2y2   :     0.001485
      dxy     :     0.008781

  3 O s       :     3.791111  s :     3.791111
      pz      :     1.830013  p :     4.588044
      px      :     1.579565
      py      :     1.178467
      dz2     :     0.002389  d :     0.015164
      dxz     :     0.001559
      dyz     :     0.000951
      dx2y2   :     0.001485
      dxy     :     0.008781

  4 H s       :     0.630665  s :     0.630665
      pz      :     0.017910  p :     0.066732
      px      :     0.021836
      py      :     0.026986

  5 H s       :     0.630665  s :     0.630665
      pz      :     0.017910  p :     0.066732
      px      :     0.021836
      py      :     0.026986



                     *******************************
                     * LOEWDIN POPULATION ANALYSIS *
                     *******************************

----------------------
LOEWDIN ATOMIC CHARGES
----------------------
   0 C :    0.002601
   1 O :   -0.244664
   2 O :    0.045927
   3 O :    0.045927
   4 H :    0.075105
   5 H :    0.075105

-------------------------------
LOEWDIN REDUCED ORBITAL CHARGES
-------------------------------
  0 C s       :     2.776365  s :     2.776365
      pz      :     0.708724  p :     2.677450
      px      :     1.049975
      py      :     0.918752
      dz2     :     0.031066  d :     0.543584
      dxz     :     0.094441
      dyz     :     0.070363
      dx2y2   :     0.136503
      dxy     :     0.211211

  1 O s       :     3.511628  s :     3.511628
      pz      :     1.498596  p :     4.708359
      px      :     1.430324
      py      :     1.779440
      dz2     :     0.003825  d :     0.024677
      dxz     :     0.004888
      dyz     :     0.000020
      dx2y2   :     0.012629
      dxy     :     0.003314

  2 O s       :     3.342635  s :     3.342635
      pz      :     1.760412  p :     4.590415
      px      :     1.607789
      py      :     1.222214
      dz2     :     0.003377  d :     0.021024
      dxz     :     0.001017
      dyz     :     0.001319
      dx2y2   :     0.002496
      dxy     :     0.012816

  3 O s       :     3.342635  s :     3.342635
      pz      :     1.760412  p :     4.590415
      px      :     1.607789
      py      :     1.222214
      dz2     :     0.003377  d :     0.021024
      dxz     :     0.001017
      dyz     :     0.001319
      dx2y2   :     0.002496
      dxy     :     0.012816

  4 H s       :     0.733968  s :     0.733968
      pz      :     0.048736  p :     0.190927
      px      :     0.074462
      py      :     0.067729

  5 H s       :     0.733968  s :     0.733968
      pz      :     0.048736  p :     0.190927
      px      :     0.074462
      py      :     0.067729



                      *****************************
                      * MAYER POPULATION ANALYSIS *
                      *****************************

  NA   - Mulliken gross atomic population
  ZA   - Total nuclear charge
  QA   - Mulliken gross atomic charge
  VA   - Mayer's total valence
  BVA  - Mayer's bonded valence
  FA   - Mayer's free valence

  ATOM       NA         ZA         QA         VA         BVA        FA
  0 C      5.2920     6.0000     0.7080     4.1515     4.1515    -0.0000
  1 O      8.5246     8.0000    -0.5246     1.9144     1.9144     0.0000
  2 O      8.3943     8.0000    -0.3943     2.0453     2.0453     0.0000
  3 O      8.3943     8.0000    -0.3943     2.0453     2.0453     0.0000
  4 H      0.6974     1.0000     0.3026     0.9503     0.9503     0.0000
  5 H      0.6974     1.0000     0.3026     0.9503     0.9503     0.0000

  Mayer bond orders larger than 0.100000
B(  0-C ,  1-O ) :   1.8685 B(  0-C ,  2-O ) :   1.1279 B(  0-C ,  3-O ) :   1.1279 
B(  2-O ,  4-H ) :   0.9127 B(  3-O ,  5-H ) :   0.9127 

-------
TIMINGS
-------

Total SCF time: 0 days 0 hours 0 min 3 sec 

Total time                  ....       3.548 sec
Sum of individual times     ....       3.558 sec  (100.3%)

SCF preparation             ....       0.020 sec  (  0.6%)
Fock matrix formation       ....       3.041 sec  ( 85.7%)
  Startup                   ....       0.001 sec  (  0.0% of F)
  Coulomb+Exchange Fock     ....       3.222 sec  (105.9% of F)
Diagonalization             ....       0.000 sec  (  0.0%)
Density matrix formation    ....       0.007 sec  (  0.2%)
Total Energy calculation    ....       0.001 sec  (  0.0%)
Population analysis         ....       0.002 sec  (  0.1%)
Orbital Transformation      ....       0.221 sec  (  6.2%)
Orbital Orthonormalization  ....       0.000 sec  (  0.0%)
DIIS solution               ....       0.260 sec  (  7.3%)
SOSCF solution              ....       0.006 sec  (  0.2%)
Finished LeanSCF after   3.6 sec

Maximum memory used throughout the entire LEANSCF-calculation: 8.6 MB

------------------------------------------------------------------------------
                                ORCA  MP2 
------------------------------------------------------------------------------

Freezing NCore=8 chemical core electrons
MP2 will be done in the AO integral direct mode
The Q1-step will be done using symmetric double matrices
Dimension of the basis                    ...   84
Memory devoted for MP2                    ... 4096 MB   
Memory needed for all in one shot         ...   28 MB
Number of MOs that can be treated together... 1789      
MP2 density construction                  ... relaxed
The MP2 gradient is requested => amplitudes will be stored on disk
Total number of MOs              ...   12
Number of MOs treated per batch  ...   12 
Number of batches necessary      ...    1 
OPERATORS   0/  0 PASS   0
-----------------------------------------------
 MP2 CORRELATION ENERGY   :     -0.723633480 Eh
-----------------------------------------------


---------------------
MP2 DENSITY FORMATION
---------------------

Completing the external part of the density      ... done
Storing the unrelaxed density                    ... done

Calculating G(D)                                 ... done
Completing the Lagrangian                        ... done
Solving the Z-vector equations                   ... 
-------------------
SHARK CP-SCF DRIVER
-------------------

Dimension of the orbital basis          ...     84
Dimension of the CPSCF-problem          ...   1088
Number of operators                     ...      1
Max. number of iterations               ...    128
Convergence Tolerance                   ... 1.0e-04
Number of perturbations                 ...      1
Perturbation type                       ... REAL

----------------------------
POPLE LINEAR EQUATION SOLVER
----------------------------

  ITERATION   0:   ||err||_max =   9.5789e-02 (   0.4 sec)
  ITERATION   1:   ||err||_max =   3.1231e-02 (   0.4 sec)
  ITERATION   2:   ||err||_max =   1.2640e-02 (   0.4 sec)
  ITERATION   3:   ||err||_max =   3.0496e-03 (   0.4 sec)
  ITERATION   4:   ||err||_max =   1.2444e-03 (   0.4 sec)
  ITERATION   5:   ||err||_max =   4.3657e-04 (   0.4 sec)
  ITERATION   6:   ||err||_max =   1.0854e-04 (   0.4 sec)
  ITERATION   7:   ||err||_max =   2.4580e-05 (   0.4 sec)
                                                 ... done
Finalizing the relaxed density                   ... done
Transforming P to the AO basis                   ... done
Storing the relaxed density                      ... done

------------------------------------
ENERGY WEIGHTED DENSITY FINALIZATION
------------------------------------

Gathering the parts of the W-matrix              ...                                                      done
Forming the Z-density                            ... done
Transforming Z to the AO basis                   ... done
Calculating G(Z)                                 ... done
Finalizing the W-matrix                          ...                                                      done
Transforming W to the AO basis and storing       ... done

                *********************************************
                * UNRELAXED MP2 DENSITY POPULATION ANALYSIS *
                *********************************************

------------------------------------------------------------------------------
                           ORCA POPULATION ANALYSIS
------------------------------------------------------------------------------
Input electron density              ... h2co3.pmp2ur
BaseName (.gbw .S,...)              ... h2co3

                    ********************************
                    * MULLIKEN POPULATION ANALYSIS *
                    ********************************

-----------------------
MULLIKEN ATOMIC CHARGES
-----------------------
   0 C :    0.667187
   1 O :   -0.502849
   2 O :   -0.380787
   3 O :   -0.380787
   4 H :    0.298618
   5 H :    0.298618
Sum of atomic charges:    0.0000000

--------------------------------
MULLIKEN REDUCED ORBITAL CHARGES
--------------------------------
  0 C s       :     2.857487  s :     2.857487
      pz      :     0.689720  p :     2.178934
      px      :     0.772959
      py      :     0.716255
      dz2     :     0.013227  d :     0.296393
      dxz     :     0.057390
      dyz     :     0.041409
      dx2y2   :     0.071692
      dxy     :     0.112675
  1 O s       :     3.856993  s :     3.856993
      pz      :     1.514296  p :     4.611423
      px      :     1.281881
      py      :     1.815247
      dz2     :     0.005379  d :     0.034432
      dxz     :     0.008545
      dyz     :     0.003366
      dx2y2   :     0.010580
      dxy     :     0.006562
  2 O s       :     3.788220  s :     3.788220
      pz      :     1.817514  p :     4.560450
      px      :     1.569768
      py      :     1.173169
      dz2     :     0.005725  d :     0.032117
      dxz     :     0.005051
      dyz     :     0.004574
      dx2y2   :     0.004861
      dxy     :     0.011906
  3 O s       :     3.788220  s :     3.788220
      pz      :     1.817514  p :     4.560450
      px      :     1.569768
      py      :     1.173169
      dz2     :     0.005725  d :     0.032117
      dxz     :     0.005051
      dyz     :     0.004574
      dx2y2   :     0.004861
      dxy     :     0.011906
  4 H s       :     0.632922  s :     0.632922
      pz      :     0.019158  p :     0.068460
      px      :     0.022321
      py      :     0.026981
  5 H s       :     0.632922  s :     0.632922
      pz      :     0.019158  p :     0.068460
      px      :     0.022321
      py      :     0.026981


                     *******************************
                     * LOEWDIN POPULATION ANALYSIS *
                     *******************************

----------------------
LOEWDIN ATOMIC CHARGES
----------------------
   0 C :   -0.031693
   1 O :   -0.224626
   2 O :    0.056276
   3 O :    0.056276
   4 H :    0.071884
   5 H :    0.071884

-------------------------------
LOEWDIN REDUCED ORBITAL CHARGES
-------------------------------
  0 C s       :     2.779895  s :     2.779895
      pz      :     0.726673  p :     2.697032
      px      :     1.049505
      py      :     0.920855
      dz2     :     0.034503  d :     0.554765
      dxz     :     0.095618
      dyz     :     0.072865
      dx2y2   :     0.139065
      dxy     :     0.212714
  1 O s       :     3.508981  s :     3.508981
      pz      :     1.484290  p :     4.672917
      px      :     1.421588
      py      :     1.767039
      dz2     :     0.007259  d :     0.042727
      dxz     :     0.008385
      dyz     :     0.003375
      dx2y2   :     0.016619
      dxy     :     0.007090
  2 O s       :     3.341232  s :     3.341232
      pz      :     1.748837  p :     4.563105
      px      :     1.598283
      py      :     1.215985
      dz2     :     0.007273  d :     0.039388
      dxz     :     0.004545
      dyz     :     0.004959
      dx2y2   :     0.005996
      dxy     :     0.016615
  3 O s       :     3.341232  s :     3.341232
      pz      :     1.748837  p :     4.563105
      px      :     1.598283
      py      :     1.215985
      dz2     :     0.007273  d :     0.039388
      dxz     :     0.004545
      dyz     :     0.004959
      dx2y2   :     0.005996
      dxy     :     0.016615
  4 H s       :     0.733959  s :     0.733959
      pz      :     0.049716  p :     0.194157
      px      :     0.075764
      py      :     0.068677
  5 H s       :     0.733959  s :     0.733959
      pz      :     0.049716  p :     0.194157
      px      :     0.075764
      py      :     0.068677


                      *****************************
                      * MAYER POPULATION ANALYSIS *
                      *****************************

  NA   - Mulliken gross atomic population
  ZA   - Total nuclear charge
  QA   - Mulliken gross atomic charge
  VA   - Mayer's total valence
  BVA  - Mayer's bonded valence
  FA   - Mayer's free valence

  ATOM       NA         ZA         QA         VA         BVA        FA
  0 C      5.3328     6.0000     0.6672     4.2059     3.9028     0.3031
  1 O      8.5028     8.0000    -0.5028     2.1705     1.7812     0.3893
  2 O      8.3808     8.0000    -0.3808     2.2718     1.9364     0.3355
  3 O      8.3808     8.0000    -0.3808     2.2718     1.9364     0.3355
  4 H      0.7014     1.0000     0.2986     0.9583     0.9093     0.0490
  5 H      0.7014     1.0000     0.2986     0.9583     0.9093     0.0490

  Mayer bond orders larger than 0.100000
B(  0-C ,  1-O ) :   1.7476 B(  0-C ,  2-O ) :   1.0652 B(  0-C ,  3-O ) :   1.0652 
B(  2-O ,  4-H ) :   0.8739 B(  3-O ,  5-H ) :   0.8739 


                *******************************************
                * RELAXED MP2 DENSITY POPULATION ANALYSIS *
                *******************************************

------------------------------------------------------------------------------
                           ORCA POPULATION ANALYSIS
------------------------------------------------------------------------------
Input electron density              ... h2co3.pmp2re
BaseName (.gbw .S,...)              ... h2co3

                    ********************************
                    * MULLIKEN POPULATION ANALYSIS *
                    ********************************

-----------------------
MULLIKEN ATOMIC CHARGES
-----------------------
   0 C :    0.479558
   1 O :   -0.399691
   2 O :   -0.317154
   3 O :   -0.317154
   4 H :    0.277221
   5 H :    0.277221
Sum of atomic charges:    0.0000000

--------------------------------
MULLIKEN REDUCED ORBITAL CHARGES
--------------------------------
  0 C s       :     2.879120  s :     2.879120
      pz      :     0.827008  p :     2.361533
      px      :     0.786664
      py      :     0.747861
      dz2     :     0.012463  d :     0.279789
      dxz     :     0.051893
      dyz     :     0.040853
      dx2y2   :     0.066797
      dxy     :     0.107784
  1 O s       :     3.839467  s :     3.839467
      pz      :     1.449544  p :     4.527240
      px      :     1.305400
      py      :     1.772296
      dz2     :     0.005186  d :     0.032983
      dxz     :     0.008149
      dyz     :     0.003375
      dx2y2   :     0.009620
      dxy     :     0.006653
  2 O s       :     3.776018  s :     3.776018
      pz      :     1.783078  p :     4.509963
      px      :     1.550479
      py      :     1.176406
      dz2     :     0.005547  d :     0.031173
      dxz     :     0.005085
      dyz     :     0.004682
      dx2y2   :     0.004828
      dxy     :     0.011032
  3 O s       :     3.776018  s :     3.776018
      pz      :     1.783078  p :     4.509963
      px      :     1.550479
      py      :     1.176406
      dz2     :     0.005547  d :     0.031173
      dxz     :     0.005085
      dyz     :     0.004682
      dx2y2   :     0.004828
      dxy     :     0.011032
  4 H s       :     0.655458  s :     0.655458
      pz      :     0.020405  p :     0.067322
      px      :     0.021520
      py      :     0.025397
  5 H s       :     0.655458  s :     0.655458
      pz      :     0.020405  p :     0.067322
      px      :     0.021520
      py      :     0.025397


                     *******************************
                     * LOEWDIN POPULATION ANALYSIS *
                     *******************************

----------------------
LOEWDIN ATOMIC CHARGES
----------------------
   0 C :   -0.130915
   1 O :   -0.155116
   2 O :    0.081336
   3 O :    0.081336
   4 H :    0.061680
   5 H :    0.061680

-------------------------------
LOEWDIN REDUCED ORBITAL CHARGES
-------------------------------
  0 C s       :     2.781795  s :     2.781795
      pz      :     0.835058  p :     2.801814
      px      :     1.043348
      py      :     0.923408
      dz2     :     0.033953  d :     0.547306
      dxz     :     0.089389
      dyz     :     0.072063
      dx2y2   :     0.138568
      dxy     :     0.213332
  1 O s       :     3.509489  s :     3.509489
      pz      :     1.432765  p :     4.604218
      px      :     1.434884
      py      :     1.736569
      dz2     :     0.006961  d :     0.041409
      dxz     :     0.008515
      dyz     :     0.003379
      dx2y2   :     0.015183
      dxy     :     0.007371
  2 O s       :     3.342474  s :     3.342474
      pz      :     1.723168  p :     4.537553
      px      :     1.591641
      py      :     1.222744
      dz2     :     0.007179  d :     0.038637
      dxz     :     0.004662
      dyz     :     0.005231
      dx2y2   :     0.005846
      dxy     :     0.015718
  3 O s       :     3.342474  s :     3.342474
      pz      :     1.723168  p :     4.537553
      px      :     1.591641
      py      :     1.222744
      dz2     :     0.007179  d :     0.038637
      dxz     :     0.004662
      dyz     :     0.005231
      dx2y2   :     0.005846
      dxy     :     0.015718
  4 H s       :     0.745168  s :     0.745168
      pz      :     0.050013  p :     0.193152
      px      :     0.076077
      py      :     0.067062
  5 H s       :     0.745168  s :     0.745168
      pz      :     0.050013  p :     0.193152
      px      :     0.076077
      py      :     0.067062


                      *****************************
                      * MAYER POPULATION ANALYSIS *
                      *****************************

  NA   - Mulliken gross atomic population
  ZA   - Total nuclear charge
  QA   - Mulliken gross atomic charge
  VA   - Mayer's total valence
  BVA  - Mayer's bonded valence
  FA   - Mayer's free valence

  ATOM       NA         ZA         QA         VA         BVA        FA
  0 C      5.5204     6.0000     0.4796     4.3831     4.1024     0.2808
  1 O      8.3997     8.0000    -0.3997     2.3140     1.9396     0.3745
  2 O      8.3172     8.0000    -0.3172     2.3528     2.0233     0.3295
  3 O      8.3172     8.0000    -0.3172     2.3528     2.0233     0.3295
  4 H      0.7228     1.0000     0.2772     0.9802     0.9321     0.0481
  5 H      0.7228     1.0000     0.2772     0.9802     0.9321     0.0481

  Mayer bond orders larger than 0.100000
B(  0-C ,  1-O ) :   1.8460 B(  0-C ,  2-O ) :   1.1120 B(  0-C ,  3-O ) :   1.1120 
B(  2-O ,  4-H ) :   0.8818 B(  3-O ,  5-H ) :   0.8818 


----------------------------------
MP2 DERIVATIVE INTEGRAL GENERATION
----------------------------------

Input SCF Electron Density              ... h2co3.scfp
Input Correlated Electron Density       ... h2co3.pmp2re
Input Energy Weighted Density           ... h2co3.wmp2.tmp
Input Wavefunction Amplitudes           ... h2co3.mp2tsaa.tmp

Nuclear repulsion gradient              ... done (  0.0 sec)
HCore & Overlap gradient  (SHARK)       ... done (  0.0 sec)
Analytic two-electron gradient terms    ... 
  Batch handling in the gradient evaluation:
  General contraction                   ... not used
  Memory available                      ... 4092.2 MB
  Memory per occupied orbital in Q2     ...    0.6 MB
  Memory per occupied orbital in Q3     ...    0.0 MB
  Total memory requirement per |i>      ...    0.7 MB
  Number of orbitals treated per batch  ...     12
  Number of batches to be done          ...      1
done (  1.7 sec)

---------------------------------------
MP2 TOTAL ENERGY:     -264.442827177 Eh
---------------------------------------

The final MP2 gradient
  0:  -0.08192464  -0.00000000  -0.00000000
  1:   0.01623804   0.00000000   0.00000000
  2:   0.04058465   0.01806636   0.00000000
  3:   0.04058465  -0.01806636   0.00000000
  4:  -0.00774135   0.00633636  -0.00000000
  5:  -0.00774135  -0.00633636   0.00000000

-----------------------------------
NORM OF THE MP2 GRADIENT:  0.105463
-----------------------------------

Maximum memory used throughout the entire MP2-calculation: 39.0 MB

-------------------------   --------------------
FINAL SINGLE POINT ENERGY      -264.442827176507
-------------------------   --------------------

------------------------------------------------------------------------------
                         ORCA GEOMETRY RELAXATION STEP
------------------------------------------------------------------------------

Reading the OPT-File                    .... done
Getting information on internals        .... done
Copying old internal coords+grads       .... done
Making the new internal coordinates     .... (2022 redundants) done
Validating the new internal coordinates .... (2022 redundants) done
Calculating the B-matrix                .... done
Calculating the G,G- and P matrices     .... done
Transforming gradient to internals      .... done
Projecting the internal gradient        .... done
Number of atoms                         ....   6
Number of internal coordinates          ....  14
Current Energy                          ....  -264.442827177 Eh
Current gradient norm                   ....     0.105463221 Eh/bohr
Maximum allowed component of the step   ....  0.300
Current trust radius                    ....  0.300
Evaluating the initial hessian          ....  (Almloef) done
Projecting the Hessian                  .... done
Forming the augmented Hessian           .... done
Diagonalizing the augmented Hessian     .... done
Last element of RFO vector              ....  0.987232776
Lowest eigenvalues of augmented Hessian:
 -0.012035664  0.036418280  0.036418280  0.036418280  0.377719754
Length of the computed step             ....  0.161344084
The final length of the internal step   ....  0.161344084
Converting the step to Cartesian space:
 Initial RMS(Int)=    0.0431210203
Transforming coordinates:
 Iter   0:  RMS(Cart)=    0.0490097983 RMS(Int)=    1.6798054943
 Iter   5:  RMS(Cart)=    0.0000000244 RMS(Int)=    0.0000000216
done
Storing new coordinates                 .... done

                                .--------------------.
          ----------------------|Geometry convergence|-------------------------
          Item                value                   Tolerance       Converged
          ---------------------------------------------------------------------
          RMS gradient        0.0201292006            0.0001000000      NO
          MAX gradient        0.0560166453            0.0003000000      NO
          RMS step            0.0431210203            0.0020000000      NO
          MAX step            0.1193361101            0.0040000000      NO
          -------------------------------------------------------------------------
          ........................................................
          Max(Bonds)      0.0084      Max(Angles)    6.84
          Max(Dihed)        0.00      Max(Improp)    0.00
          ---------------------------------------------------------------------

The optimization has not yet converged - more geometry cycles are needed


    ---------------------------------------------------------------------------
                         Redundant Internal Coordinates
                            (Angstroem and degrees)

        Definition                    Value    dE/dq     Step     New-Value
    ----------------------------------------------------------------------------
     1. B(O   1,C   0)                1.2300  0.016238 -0.0084    1.2216   
     2. B(O   2,C   0)                1.3300  0.004712 -0.0035    1.3265   
     3. B(O   3,C   0)                1.3300  0.004712 -0.0035    1.3265   
     4. B(H   4,O   2)                0.9600 -0.000471  0.0005    0.9605   
     5. B(H   5,O   3)                0.9600 -0.000471  0.0005    0.9605   
     6. A(O   1,C   0,O   3)          120.00 -0.028008    3.42    123.42   
     7. A(O   2,C   0,O   3)          120.00  0.056017   -6.84    113.16   
     8. A(O   1,C   0,O   2)          120.00 -0.028008    3.42    123.42   
     9. A(C   0,O   2,H   4)          108.00  0.018128   -2.66    105.34   
    10. A(C   0,O   3,H   5)          108.00  0.018128   -2.66    105.34   
    11. D(H   4,O   2,C   0,O   1)      0.00  0.000000   -0.00     -0.00   
    12. D(H   4,O   2,C   0,O   3)    180.00 -0.000000    0.00    180.00   
    13. D(H   5,O   3,C   0,O   1)      0.00 -0.000000    0.00      0.00   
    14. D(H   5,O   3,C   0,O   2)    180.00  0.000000   -0.00    180.00   
    ----------------------------------------------------------------------------

Geometry step timings:
Preparation and reading OPT file:      0.000 s ( 3.454 %)
Internal coordinates            :      0.000 s ( 4.867 %)
B/P matrices and projection     :      0.000 s (18.995 %)
Hessian update/contruction      :      0.000 s (15.856 %)
Making the step                 :      0.000 s (14.443 %)
Converting the step to Cartesian:      0.000 s ( 6.907 %)
Storing new data                :      0.000 s ( 4.082 %)
Checking convergence            :      0.000 s ( 6.907 %)
Final printing                  :      0.000 s (24.490 %)
Total time                      :      0.001 s

Time for energy+gradient        :     10.119 s
Time for complete geometry iter :     10.137 s

         *************************************************************
         *                GEOMETRY OPTIMIZATION CYCLE   2            *
         *************************************************************
---------------------------------
CARTESIAN COORDINATES (ANGSTROEM)
---------------------------------
  C      0.048160    0.000000    0.000000
  O      1.269730   -0.000000   -0.000000
  O     -0.682407    1.107176   -0.000000
  O     -0.682407   -1.107176   -0.000000
  H     -0.049174    1.829336   -0.000000
  H     -0.049174   -1.829336   -0.000000

----------------------------
CARTESIAN COORDINATES (A.U.)
----------------------------
  NO LB      ZA    FRAG     MASS         X           Y           Z
   0 C     6.0000    0    12.011    0.091010    0.000000    0.000000
   1 O     8.0000    0    15.999    2.399443   -0.000000   -0.000000
   2 O     8.0000    0    15.999   -1.289562    2.092259   -0.000000
   3 O     8.0000    0    15.999   -1.289562   -2.092259   -0.000000
   4 H     1.0000    0     1.008   -0.092925    3.456944   -0.000000
   5 H     1.0000    0     1.008   -0.092925   -3.456944   -0.000000

--------------------------------
INTERNAL COORDINATES (ANGSTROEM)
--------------------------------
 C      0   0   0     0.000000000000     0.00000000     0.00000000
 O      1   0   0     1.221569935599     0.00000000     0.00000000
 O      1   2   0     1.326486595469   123.41872322     0.00000000
 O      1   2   3     1.326486595469   123.41872322   180.00000000
 H      3   1   2     0.960468365301   105.33507924     0.00000000
 H      4   1   2     0.960468365301   105.33507924     0.00000000

---------------------------
INTERNAL COORDINATES (A.U.)
---------------------------
 C      0   0   0     0.000000000000     0.00000000     0.00000000
 O      1   0   0     2.308432631713     0.00000000     0.00000000
 O      1   2   0     2.506696385754   123.41872322     0.00000000
 O      1   2   3     2.506696385754   123.41872322   180.00000000
 H      3   1   2     1.815022170714   105.33507924     0.00000000
 H      4   1   2     1.815022170714   105.33507924     0.00000000

------------------------------------------------------------------------------
                   ___                                                        
                  /   \      - P O W E R E D   B Y -                         
                 /     \                                                     
                 |  |  |   _    _      __       _____    __    __             
                 |  |  |  | |  | |    /  \     |  _  \  |  |  /  |          
                  \  \/   | |  | |   /    \    | | | |  |  | /  /          
                 / \  \   | |__| |  /  /\  \   | |_| |  |  |/  /          
                |  |  |   |  __  | /  /__\  \  |    /   |      \           
                |  |  |   | |  | | |   __   |  |    \   |  |\   \          
                \     /   | |  | | |  |  |  |  | |\  \  |  | \   \       
                 \___/    |_|  |_| |__|  |__|  |_| \__\ |__|  \__/        
                                                                              
                      - O R C A' S   B I G   F R I E N D -                    
                                      &                                       
                       - I N T E G R A L  F E E D E R -                       
                                                                              
 v1 FN, 2020, v2 2021, v3 2022-2024                                           
------------------------------------------------------------------------------


----------------------
SHARK INTEGRAL PACKAGE
----------------------

Number of atoms                             ...      6
Number of basis functions                   ...     84
Number of shells                            ...     40
Maximum angular momentum                    ...      2
Integral batch strategy                     ... SHARK/LIBINT Hybrid
RI-J (if used) integral strategy            ... SPLIT-RIJ (Revised 2003 algorithm where possible)
Printlevel                                  ...      1
Contraction scheme used                     ... SEGMENTED contraction
Prescreening option                         ... SCHWARTZ
   Thresh                                   ... 2.500e-11
   Tcut                                     ... 2.500e-12
   Tpresel                                  ... 2.500e-12 
Coulomb Range Separation                    ... NOT USED
Exchange Range Separation                   ... NOT USED
Multipole approximations                    ... NOT USED
Finite Nucleus Model                        ... NOT USED
CABS basis                                  ... NOT available
Auxiliary Coulomb fitting basis             ... NOT available
Auxiliary J/K fitting basis                 ... NOT available
Auxiliary Correlation fitting basis         ... NOT available
Auxiliary 'external' fitting basis          ... NOT available

Checking pre-screening integrals            ... done (  0.0 sec) Dimension = 40
   => SHARK Basis and OBASIS are compatible. Storing Pre-screening
Shell pair information
Shell pair cut-off parameter TPreSel        ...   2.5e-12
Total number of shell pairs                 ...       820
Shell pairs after pre-screening             ...       791
Total number of primitive shell pairs       ...      3330
Primitive shell pairs kept                  ...      2523
          la=0 lb=0:    236 shell pairs
          la=1 lb=0:    296 shell pairs
          la=1 lb=1:    105 shell pairs
          la=2 lb=0:     88 shell pairs
          la=2 lb=1:     56 shell pairs
          la=2 lb=2:     10 shell pairs

Checking whether 4 symmetric matrices of dimension 84 fit in memory
:Max Core in MB      =   4096.00
 MB in use           =      2.30
 MB left             =   4093.70
 MB needed           =      0.11
 Data fit in memory  = YES
Calculating Nuclear repulsion               ... done (  0.0 sec) ENN=    123.565773238535 Eh

Diagonalization of the overlap matrix:
Smallest eigenvalue                        ... 8.517e-03
Time for diagonalization                   ...    0.001 sec
Threshold for overlap eigenvalues          ... 1.000e-07
Number of eigenvalues below threshold      ... 0
Time for construction of square roots      ...    0.000 sec
Total time needed                          ...    0.001 sec

-------------------
DFT GRID GENERATION
-------------------

General Integration Accuracy     IntAcc      ... 4.388
Radial Grid Type                 RadialGrid  ... OptM3 with GC (2021)
Angular Grid (max. ang.)         AngularGrid ... 4 (Lebedev-302)
Angular grid pruning method      GridPruning ... 4 (adaptive)
Weight generation scheme         WeightScheme... mBecke (2022)
Basis function cutoff            BFCut       ... 1.0000e-11
Integration weight cutoff        WCut        ... 1.0000e-14
Partially contracted basis set               ... off
Rotationally invariant grid construction     ... off
Angular grids for H and He will be reduced by one unit

Total number of grid points                  ...    30963
Total number of batches                      ...      486
Average number of points per batch           ...       63
Average number of grid points per atom       ...     5160
Grids setup in   0.1 sec
Initializing property integral containers    ... done (  0.0 sec)

SHARK setup successfully completed in   0.2 seconds

Maximum memory used throughout the entire STARTUP-calculation: 12.2 MB
Occupation numbers will be reassigned to an Aufbau configuration
             **** ENERGY FILE WAS UPDATED (h2co3.en.tmp) ****
Finished Guess after   0.0 sec
Maximum memory used throughout the entire GUESS-calculation: 5.2 MB
----------------------------------------D-I-I-S--------------------------------------------
Iteration    Energy (Eh)           Delta-E    RMSDP     MaxDP     DIISErr   Damp  Time(sec)
-------------------------------------------------------------------------------------------
               ***  Starting incremental Fock matrix formation  ***
    1    -263.7241649666117951     0.00e+00  2.66e-04  2.14e-03  2.01e-02  0.700   0.3
    2    -263.7247973862322397    -6.32e-04  2.34e-04  1.90e-03  1.63e-02  0.700   0.4
                               ***Turning on AO-DIIS***
    3    -263.7253085047187824    -5.11e-04  2.15e-04  1.83e-03  1.30e-02  0.700   0.2
    4    -263.7257064758280194    -3.98e-04  5.76e-04  5.01e-03  9.73e-03  0.000   0.2
                              *** Initializing SOSCF ***
---------------------------------------S-O-S-C-F--------------------------------------
Iteration    Energy (Eh)           Delta-E    RMSDP     MaxDP     MaxGrad    Time(sec)
--------------------------------------------------------------------------------------
    5    -263.7268733478727540    -1.17e-03  5.13e-05  4.67e-04  9.48e-04     0.2
               *** Restarting incremental Fock matrix formation ***
    6    -263.7268799989466856    -6.65e-06  2.03e-05  1.97e-04  2.72e-04     0.3
    7    -263.7268807583042189    -7.59e-07  1.42e-05  1.42e-04  9.58e-05     0.2
    8    -263.7268808905770356    -1.32e-07  3.03e-06  3.91e-05  3.86e-05     0.2
    9    -263.7268809125459939    -2.20e-08  7.89e-07  9.03e-06  1.32e-05     0.2
   10    -263.7268809139382029    -1.39e-09  5.18e-07  7.51e-06  5.05e-06     0.2
                 **** Energy Check signals convergence ****

               *****************************************************
               *                     SUCCESS                       *
               *           SCF CONVERGED AFTER  10 CYCLES          *
               *****************************************************

             **** ENERGY FILE WAS UPDATED (h2co3.en.tmp) ****

----------------
TOTAL SCF ENERGY
----------------

Total Energy       :       -263.72688091437726 Eh           -7176.37327 eV

Components:
Nuclear Repulsion  :        123.56577323853463 Eh            3362.39563 eV
Electronic Energy  :       -387.29265415291189 Eh          -10538.76890 eV
One Electron Energy:       -607.62972920099355 Eh          -16534.44553 eV
Two Electron Energy:        220.33707504808166 Eh            5995.67663 eV

Virial components:
Potential Energy   :       -527.23043019240095 Eh          -14346.66938 eV
Kinetic Energy     :        263.50354927802374 Eh            7170.29611 eV
Virial Ratio       :          2.00084754697599

---------------
SCF CONVERGENCE
---------------

  Last Energy change         ...    1.3922e-09  Tolerance :   1.0000e-08
  Last MAX-Density change    ...    7.5072e-06  Tolerance :   1.0000e-07
  Last RMS-Density change    ...    5.1808e-07  Tolerance :   5.0000e-09
  Last DIIS Error            ...    9.4805e-04  Tolerance :   5.0000e-07
  Last Orbital Gradient      ...    5.0480e-06  Tolerance :   1.0000e-05
  Last Orbital Rotation      ...    1.2282e-05  Tolerance :   1.0000e-05


Total SCF time: 0 days 0 hours 0 min 2 sec 
Finished LeanSCF after   2.7 sec

Maximum memory used throughout the entire LEANSCF-calculation: 8.7 MB

------------------------------------------------------------------------------
                                ORCA  MP2 
------------------------------------------------------------------------------

Freezing NCore=8 chemical core electrons
MP2 will be done in the AO integral direct mode
The Q1-step will be done using symmetric double matrices
Dimension of the basis                    ...   84
Memory devoted for MP2                    ... 4096 MB   
Memory needed for all in one shot         ...   28 MB
Number of MOs that can be treated together... 1789      
MP2 density construction                  ... relaxed
The MP2 gradient is requested => amplitudes will be stored on disk
Total number of MOs              ...   12
Number of MOs treated per batch  ...   12 
Number of batches necessary      ...    1 
OPERATORS   0/  0 PASS   0
-----------------------------------------------
 MP2 CORRELATION ENERGY   :     -0.724341428 Eh
-----------------------------------------------


---------------------
MP2 DENSITY FORMATION
---------------------

Completing the external part of the density      ... done
Storing the unrelaxed density                    ... done

Calculating G(D)                                 ... done
Completing the Lagrangian                        ... done
Solving the Z-vector equations                   ... 
-------------------
SHARK CP-SCF DRIVER
-------------------

Dimension of the orbital basis          ...     84
Dimension of the CPSCF-problem          ...   1088
Number of operators                     ...      1
Max. number of iterations               ...    128
Convergence Tolerance                   ... 1.0e-04
Number of perturbations                 ...      1
Perturbation type                       ... REAL

----------------------------
POPLE LINEAR EQUATION SOLVER
----------------------------

  ITERATION   0:   ||err||_max =   9.4338e-02 (   0.3 sec)
  ITERATION   1:   ||err||_max =   3.0334e-02 (   0.4 sec)
  ITERATION   2:   ||err||_max =   1.2225e-02 (   0.4 sec)
  ITERATION   3:   ||err||_max =   2.7771e-03 (   0.4 sec)
  ITERATION   4:   ||err||_max =   1.0918e-03 (   0.4 sec)
  ITERATION   5:   ||err||_max =   3.3771e-04 (   0.4 sec)
  ITERATION   6:   ||err||_max =   9.5599e-05 (   0.4 sec)
                                                 ... done
Finalizing the relaxed density                   ... done
Transforming P to the AO basis                   ... done
Storing the relaxed density                      ... done

------------------------------------
ENERGY WEIGHTED DENSITY FINALIZATION
------------------------------------

Gathering the parts of the W-matrix              ...                                                      done
Forming the Z-density                            ... done
Transforming Z to the AO basis                   ... done
Calculating G(Z)                                 ... done
Finalizing the W-matrix                          ...                                                      done
Transforming W to the AO basis and storing       ... done

----------------------------------
MP2 DERIVATIVE INTEGRAL GENERATION
----------------------------------

Input SCF Electron Density              ... h2co3.scfp
Input Correlated Electron Density       ... h2co3.pmp2re
Input Energy Weighted Density           ... h2co3.wmp2.tmp
Input Wavefunction Amplitudes           ... h2co3.mp2tsaa.tmp

Nuclear repulsion gradient              ... done (  0.0 sec)
HCore & Overlap gradient  (SHARK)       ... done (  0.0 sec)
Analytic two-electron gradient terms    ... 
  Batch handling in the gradient evaluation:
  General contraction                   ... not used
  Memory available                      ... 4092.1 MB
  Memory per occupied orbital in Q2     ...    0.6 MB
  Memory per occupied orbital in Q3     ...    0.0 MB
  Total memory requirement per |i>      ...    0.7 MB
  Number of orbitals treated per batch  ...     12
  Number of batches to be done          ...      1
done (  1.6 sec)

---------------------------------------
MP2 TOTAL ENERGY:     -264.451222342 Eh
---------------------------------------

The final MP2 gradient
  0:  -0.04617110  -0.00000000   0.00000000
  1:   0.01431250   0.00000000  -0.00000000
  2:   0.01908879   0.00356879  -0.00000000
  3:   0.01908879  -0.00356879  -0.00000000
  4:  -0.00315948  -0.00025640   0.00000000
  5:  -0.00315948   0.00025640   0.00000000

-----------------------------------
NORM OF THE MP2 GRADIENT:  0.055776
-----------------------------------

Maximum memory used throughout the entire MP2-calculation: 39.1 MB

-------------------------   --------------------
FINAL SINGLE POINT ENERGY      -264.451222342284
-------------------------   --------------------

------------------------------------------------------------------------------
                         ORCA GEOMETRY RELAXATION STEP
------------------------------------------------------------------------------

Reading the OPT-File                    .... done
Getting information on internals        .... done
Copying old internal coords+grads       .... done
Making the new internal coordinates     .... (2022 redundants) done
Validating the new internal coordinates .... (2022 redundants) done
Calculating the B-matrix                .... done
Calculating the G,G- and P matrices     .... done
Transforming gradient to internals      .... done
Projecting the internal gradient        .... done
Number of atoms                         ....   6
Number of internal coordinates          ....  14
Current Energy                          ....  -264.451222342 Eh
Current gradient norm                   ....     0.055775897 Eh/bohr
Maximum allowed component of the step   ....  0.300
[...]
                        -----------------------------------------
Total Dipole Moment    :      0.033742193       0.000000000       0.000000000
                        -----------------------------------------
Magnitude (a.u.)       :      0.033742193
Magnitude (Debye)      :      0.085765838



--------------------
Rotational spectrum 
--------------------
 
Rotational constants in cm-1:             0.397113             0.378913             0.193900 
Rotational constants in MHz :         11905.140387         11359.522324          5812.966630 

Dipole components along the rotational axes: 
x,y,z [a.u.] :     0.000000    -0.033742     0.000000 
x,y,z [Debye]:     0.000000    -0.085766     0.000000 

 

Dipole moment calculation done in   0.0 sec 

Maximum memory used throughout the entire PROP-calculation: 3.3 MB

----------------------------------------------------------------------------
                           ORCA NUMERICAL FREQUENCIES
----------------------------------------------------------------------------

Number of atoms                ... 6
Central differences            ... used
Translation invariance         ... used
Number of displacements        ... 36 - 6
Numerical increment            ... 5.000e-03 bohr
IR-spectrum generation         ... on
Raman-spectrum generation      ... off
Surface Crossing Hessian       ... off

The output will be reduced. Please look at the following files:
SCF program output             ... >h2co3.lastscf
Integral program output        ... >h2co3.lastint
Gradient program output        ... >h2co3.lastgrad
Dipole moment program output   ... >h2co3.lastmom

	<< Calculating gradient on displaced geometry   1 (of  30) >>
	<< Calculating gradient on displaced geometry   2 (of  30) >>
	<< Calculating gradient on displaced geometry   3 (of  30) >>
	<< Calculating gradient on displaced geometry   4 (of  30) >>
	<< Calculating gradient on displaced geometry   5 (of  30) >>
	<< Calculating gradient on displaced geometry   6 (of  30) >>
	<< Calculating gradient on displaced geometry   7 (of  30) >>
	<< Calculating gradient on displaced geometry   8 (of  30) >>
	<< Calculating gradient on displaced geometry   9 (of  30) >>
	<< Calculating gradient on displaced geometry  10 (of  30) >>
	<< Calculating gradient on displaced geometry  11 (of  30) >>
	<< Calculating gradient on displaced geometry  12 (of  30) >>
	<< Calculating gradient on displaced geometry  13 (of  30) >>
	<< Calculating gradient on displaced geometry  14 (of  30) >>
	<< Calculating gradient on displaced geometry  15 (of  30) >>
	<< Calculating gradient on displaced geometry  16 (of  30) >>
	<< Calculating gradient on displaced geometry  17 (of  30) >>
	<< Calculating gradient on displaced geometry  18 (of  30) >>
	<< Calculating gradient on displaced geometry  19 (of  30) >>
	<< Calculating gradient on displaced geometry  20 (of  30) >>
	<< Calculating gradient on displaced geometry  21 (of  30) >>
	<< Calculating gradient on displaced geometry  22 (of  30) >>
	<< Calculating gradient on displaced geometry  23 (of  30) >>
	<< Calculating gradient on displaced geometry  24 (of  30) >>
	<< Calculating gradient on displaced geometry  25 (of  30) >>
	<< Calculating gradient on displaced geometry  26 (of  30) >>
	<< Calculating gradient on displaced geometry  27 (of  30) >>
	<< Calculating gradient on displaced geometry  28 (of  30) >>
	<< Calculating gradient on displaced geometry  29 (of  30) >>
	<< Calculating gradient on displaced geometry  30 (of  30) >>

-----------------------
VIBRATIONAL FREQUENCIES
-----------------------

Scaling factor for frequencies =  1.000000000  (already applied!)

     0:       0.00 cm**-1
     1:       0.00 cm**-1
     2:       0.00 cm**-1
     3:       0.00 cm**-1
     4:       0.00 cm**-1
     5:       0.00 cm**-1
     6:     526.09 cm**-1
     7:     557.75 cm**-1
     8:     609.06 cm**-1
     9:     610.67 cm**-1
    10:     802.33 cm**-1
    11:     994.68 cm**-1
    12:    1195.24 cm**-1
    13:    1325.43 cm**-1
    14:    1493.88 cm**-1
    15:    1885.32 cm**-1
    16:    3875.33 cm**-1
    17:    3878.43 cm**-1


------------
NORMAL MODES
------------

These modes are the Cartesian displacements weighted by the diagonal matrix
M(i,i)=1/sqrt(m[i]) where m[i] is the mass of the displaced atom
Thus, these vectors are normalized but *not* orthogonal

                  0          1          2          3          4          5    
      0       0.000000   0.000000   0.000000   0.000000   0.000000   0.000000
      1       0.000000   0.000000   0.000000   0.000000   0.000000   0.000000
      2       0.000000   0.000000   0.000000   0.000000   0.000000   0.000000
      3       0.000000   0.000000   0.000000   0.000000   0.000000   0.000000
      4       0.000000   0.000000   0.000000   0.000000   0.000000   0.000000
      5       0.000000   0.000000   0.000000   0.000000   0.000000   0.000000
      6       0.000000   0.000000   0.000000   0.000000   0.000000   0.000000
      7       0.000000   0.000000   0.000000   0.000000   0.000000   0.000000
      8       0.000000   0.000000   0.000000   0.000000   0.000000   0.000000
      9       0.000000   0.000000   0.000000   0.000000   0.000000   0.000000
     10       0.000000   0.000000   0.000000   0.000000   0.000000   0.000000
     11       0.000000   0.000000   0.000000   0.000000   0.000000   0.000000
     12       0.000000   0.000000   0.000000   0.000000   0.000000   0.000000
     13       0.000000   0.000000   0.000000   0.000000   0.000000   0.000000
     14       0.000000   0.000000   0.000000   0.000000   0.000000   0.000000
     15       0.000000   0.000000   0.000000   0.000000   0.000000   0.000000
     16       0.000000   0.000000   0.000000   0.000000   0.000000   0.000000
     17       0.000000   0.000000   0.000000   0.000000   0.000000   0.000000
                  6          7          8          9         10         11    
      0       0.000000   0.205765   0.000000   0.000123  -0.000000  -0.163367
      1       0.000000  -0.000151  -0.000000   0.170161   0.000000  -0.000006
      2      -0.001464  -0.000000   0.053271   0.000000  -0.844697   0.000000
      3       0.000000   0.219348   0.000000   0.000163  -0.000000  -0.280294
      4      -0.000000   0.000316   0.000000  -0.361716  -0.000000   0.000136
      5       0.000267   0.000000   0.011474   0.000000   0.260311  -0.000000
      6      -0.000000  -0.149259   0.000000  -0.220336  -0.000000   0.180997
      7      -0.000000  -0.265528  -0.000000   0.095955   0.000000  -0.321232
      8      -0.074585   0.000000   0.018292   0.000000   0.204268  -0.000000
      9       0.000000  -0.149625  -0.000000   0.220120   0.000000   0.180671
     10       0.000000   0.265369  -0.000000   0.096591   0.000000   0.321063
     11       0.074872  -0.000000   0.019177   0.000000   0.202408  -0.000000
     12      -0.000000  -0.594214   0.000000  -0.504558   0.000000   0.327253
     13       0.000000   0.090705  -0.000000   0.328452  -0.000000  -0.451654
     14       0.707463  -0.000000  -0.701629  -0.000001  -0.269401   0.000000
     15      -0.000000  -0.595219  -0.000000   0.503936   0.000000   0.327809
     16       0.000000  -0.091391  -0.000000   0.329026   0.000000   0.452249
     17      -0.698802   0.000000  -0.709961  -0.000001  -0.251901   0.000000
                 12         13         14         15         16         17    
      0       0.000008   0.016432   0.000019  -0.705191  -0.000003  -0.002344
      1       0.146114   0.000107   0.377098   0.000034   0.003104  -0.000012
      2      -0.000000  -0.000000   0.000000   0.000000  -0.000000  -0.000000
      3       0.000126  -0.096587  -0.000019   0.402004  -0.000005  -0.000973
      4       0.006283  -0.000039  -0.044289   0.000001  -0.000705  -0.000006
      5       0.000000  -0.000000  -0.000000  -0.000000   0.000000   0.000000
      6       0.117413   0.075076  -0.003997   0.083377   0.026288  -0.025937
      7      -0.084736   0.006428  -0.091422  -0.036439   0.034201  -0.035554
      8       0.000000  -0.000000  -0.000000   0.000000   0.000000   0.000000
      9      -0.117555   0.075042   0.003973   0.083405  -0.026490  -0.025742
     10      -0.084856  -0.006479  -0.091382   0.036441   0.034469   0.035298
     11       0.000000  -0.000000   0.000000   0.000000  -0.000000   0.000000
     12      -0.535884  -0.522916   0.471393  -0.312336  -0.430667   0.433357
     13       0.425338   0.465142  -0.444568   0.253986  -0.555812   0.560363
     14      -0.000000   0.000000   0.000000   0.000000   0.000000  -0.000000
     15       0.536048  -0.522522  -0.470938  -0.312632   0.433973   0.430261
     16       0.425669  -0.464997  -0.444365  -0.254428  -0.559915  -0.556074
     17      -0.000000   0.000000  -0.000000  -0.000000   0.000000  -0.000000


-----------
IR SPECTRUM
-----------

 Mode   freq       eps      Int      T**2         TX        TY        TZ
       cm**-1   L/(mol*cm) km/mol    a.u.
----------------------------------------------------------------------------
  6:    526.09   0.000001    0.01  0.000001  (-0.000000  0.000000  0.000915)
  7:    557.75   0.000755    3.82  0.000423  (-0.020557 -0.000078  0.000000)
  8:    609.06   0.044165  223.19  0.022628  (-0.000000 -0.000000 -0.150428)
  9:    610.67   0.010191   51.50  0.005208  (-0.000087  0.072164 -0.000000)
 10:    802.33   0.010634   53.74  0.004136  (-0.000000 -0.000000 -0.064313)
 11:    994.68   0.003982   20.12  0.001249  (-0.035344  0.000049  0.000000)
 12:   1195.24   0.094187  475.98  0.024591  (-0.000063  0.156816 -0.000000)
 13:   1325.43   0.004569   23.09  0.001076  (-0.032799  0.000064  0.000000)
 14:   1493.88   0.027006  136.48  0.005641  ( 0.000064  0.075110  0.000000)
 15:   1885.32   0.091420  462.00  0.015132  (-0.123013 -0.000009 -0.000000)
 16:   3875.33   0.035972  181.79  0.002897  ( 0.000021 -0.053821  0.000000)
 17:   3878.43   0.003235   16.35  0.000260  ( 0.016131  0.000200 -0.000000)

* The epsilon (eps) is given for a Dirac delta lineshape.
** The dipole moment derivative (T) already includes vibrational overlap.

The first frequency considered to be a vibration is 6
The total number of vibrations considered is 12


--------------------------
THERMOCHEMISTRY AT 298.15K
--------------------------

Temperature         ...   298.15 K
Pressure            ...     1.00 atm
Total Mass          ...    62.02 AMU
Quasi RRHO          ...     True
Cut-Off Frequency   ...     1.00 cm^-1

Throughout the following assumptions are being made:
  (1) The electronic state is orbitally nondegenerate
  (2) There are no thermally accessible electronically excited states
  (3) Hindered rotations indicated by low frequency modes are not
      treated as such but are treated as vibrations and this may
      cause some error
  (4) All equations used are the standard statistical mechanics
      equations for an ideal gas
  (5) All vibrations are strictly harmonic

freq.     526.09  E(vib)   ...       0.13 
freq.     557.75  E(vib)   ...       0.12 
freq.     609.06  E(vib)   ...       0.10 
freq.     610.67  E(vib)   ...       0.10 
freq.     802.33  E(vib)   ...       0.05 
freq.     994.68  E(vib)   ...       0.02 
freq.    1195.24  E(vib)   ...       0.01 
freq.    1325.43  E(vib)   ...       0.01 
freq.    1493.88  E(vib)   ...       0.00 
freq.    1885.32  E(vib)   ...       0.00 
freq.    3875.33  E(vib)   ...       0.00 
freq.    3878.43  E(vib)   ...       0.00 

------------
INNER ENERGY
------------

The inner energy is: U= E(el) + E(ZPE) + E(vib) + E(rot) + E(trans)
    E(el)   - is the total energy from the electronic structure calculation
              = E(kin-el) + E(nuc-el) + E(el-el) + E(nuc-nuc)
    E(ZPE)  - the the zero temperature vibrational energy from the frequency calculation
    E(vib)  - the the finite temperature correction to E(ZPE) due to population
              of excited vibrational states
    E(rot)  - is the rotational thermal energy
    E(trans)- is the translational thermal energy

Summary of contributions to the inner energy U:
Electronic energy                ...   -264.45313116 Eh
Zero point energy                ...      0.04044705 Eh      25.38 kcal/mol
Thermal vibrational correction   ...      0.00084808 Eh       0.53 kcal/mol
Thermal rotational correction    ...      0.00141627 Eh       0.89 kcal/mol
Thermal translational correction ...      0.00141627 Eh       0.89 kcal/mol
-----------------------------------------------------------------------
Total thermal energy                   -264.40900349 Eh


Summary of corrections to the electronic energy:
(perhaps to be used in another calculation)
Total thermal correction                  0.00368062 Eh       2.31 kcal/mol
Non-thermal (ZPE) correction              0.04044705 Eh      25.38 kcal/mol
-----------------------------------------------------------------------
Total correction                          0.04412767 Eh      27.69 kcal/mol


--------
ENTHALPY
--------

The enthalpy is H = U + kB*T
                kB is Boltzmann's constant
Total thermal energy              ...   -264.40900349 Eh 
Thermal Enthalpy correction       ...      0.00094421 Eh       0.59 kcal/mol
-----------------------------------------------------------------------
Total Enthalpy                    ...   -264.40805928 Eh


Note: Rotational entropy computed according to Herzberg 
Infrared and Raman Spectra, Chapter V,1, Van Nostrand Reinhold, 1945 
Point Group:  C2v, Symmetry Number:   2  
Rotational constants in cm-1:     0.397113     0.378913     0.193900 

Vibrational entropy computed according to the QRRHO of S. Grimme
Chem.Eur.J. 2012 18 9955 using a reference frequency of 100.0 cm-1


-------
ENTROPY
-------

The entropy contributions are T*S = T*(S(el)+S(vib)+S(rot)+S(trans))
     S(el)   - electronic entropy
     S(vib)  - vibrational entropy
     S(rot)  - rotational entropy
     S(trans)- translational entropy
The entropies will be listed as multiplied by the temperature to get
units of energy

Electronic entropy                ...      0.00000000 Eh      0.00 kcal/mol
Vibrational entropy               ...      0.00112848 Eh      0.71 kcal/mol
Rotational entropy                ...      0.01052491 Eh      6.60 kcal/mol
Translational entropy             ...      0.01819476 Eh     11.42 kcal/mol
-----------------------------------------------------------------------
Final entropy term                ...      0.02984815 Eh     18.73 kcal/mol

In case the symmetry of your molecule has not been determined correctly
or in case you have a reason to use a different symmetry number we print 
out the resulting rotational entropy values for sn=1,12:

 non-linear molecules -----------------------------------
|  sn= 1 | S(rot)=       0.01117936 Eh      7.02 kcal/mol|
|  sn= 2 | S(rot)=       0.01052491 Eh      6.60 kcal/mol|
|  sn= 3 | S(rot)=       0.01014208 Eh      6.36 kcal/mol|
|  sn= 4 | S(rot)=       0.00987045 Eh      6.19 kcal/mol|
|  sn= 5 | S(rot)=       0.00965976 Eh      6.06 kcal/mol|
|  sn= 6 | S(rot)=       0.00948762 Eh      5.95 kcal/mol|
|  sn= 7 | S(rot)=       0.00934207 Eh      5.86 kcal/mol|
|  sn= 8 | S(rot)=       0.00921600 Eh      5.78 kcal/mol|
|  sn= 9 | S(rot)=       0.00910479 Eh      5.71 kcal/mol|
|  sn=10 | S(rot)=       0.00900531 Eh      5.65 kcal/mol|
|  sn=11 | S(rot)=       0.00891532 Eh      5.59 kcal/mol|
|  sn=12 | S(rot)=       0.00883316 Eh      5.54 kcal/mol|
 linear molecules ---------------------------------------
|  Dinfh | S(rot)=       0.00687465 Eh      4.31 kcal/mol|
|  Cinfv | S(rot)=       0.00752911 Eh      4.72 kcal/mol|
 --------------------------------------------------------


-------------------
GIBBS FREE ENERGY
-------------------

The Gibbs free energy is G = H - T*S

Total enthalpy                    ...   -264.40805928 Eh 
Total entropy correction          ...     -0.02984815 Eh    -18.73 kcal/mol
-----------------------------------------------------------------------
Final Gibbs free energy         ...   -264.43790743 Eh

For completeness - the Gibbs free energy minus the electronic energy
G-E(el)                           ...      0.01522373 Eh      9.55 kcal/mol



--------------------------------
SUGGESTED CITATIONS FOR THIS RUN
--------------------------------

Below you find a list of papers that are relevant to this ORCA run
We neither can nor want to force you to cite these papers, but we appreciate if you do
You receive ORCA, which is the product of decades of hard work by many enthusiastic individuals, for free
The only thing we kindly ask in return is that you cite our papers,
We deeply appreciate it, if you show your appreciation for ORCA by not just citing the generic ORCA reference.

Please note that relegating all ORCA citations to the supporting information does *not* help us.
SI sections are not indexed - citations you put there will not count into any citation statistics
But we need these citations in order to attract the funding resources that allow us to do what we are doing

Therefore, if you are a happy ORCA user, please consider citing a few of the papers listed below in the main body of your paper

In addition to the list printed below, the program has created the file h2co3.bibtex that contains the list in bibtex format
You can import this file easily into all common literature databanks and citation aid programs


List of essential papers. We consider these as the minimum necessary citations

  1. Neese, F.
     Software update: the ORCA program system, version 6.0
     WIRES Comput. Molec. Sci. 2025 15(1), e70019
     doi.org/10.1002/wcms.7019

List of papers to cite with high priority. The work reported in these papers was absolutely
necessary for this run to complete.
Our perspective: the developers of density functionals and basis sets usually get cited in chemistry papers
Good! But without the algorithms to do something with them, the functionals or basis sets would not do anything.
Hence, in our opinion, the algorithm design and method developments papers are equally worthy of getting cited

  1. Neese, F.
     The SHARK Integral Generation and Digestion System
     J. Comp. Chem. 2022 44(3), 381
     doi.org/10.1002/jcc.26942

List of suggested additional citations. These are papers that are important in the 'surrounding' of 
of this run, or papers that preceded the highly important papers. If you like your results we are grateful for a citation.

  1. Neese, F.
     The ORCA program system
     WIRES Comput. Molec. Sci. 2012 2(1), 73-78
     doi.org/10.1002/wcms.81
  2. Neese, F.
     Software update: the ORCA program system, version 4.0
     WIRES Comput. Molec. Sci. 2018 8(1), 1-6
     doi.org/10.1002/wcms.1327
  3. Neese, F.; Wennmohs, F.; Becker, U.; Riplinger, C.
     The ORCA quantum chemistry program package
     J. Chem. Phys. 2020 152(22), 224108
     doi.org/10.1063/5.0004608
  4. Neese, F.
     Software update: The ORCA program system—Version 5.0
     WIRES Comput. Molec. Sci. 2022 12(1), e1606
     doi.org/10.1002/wcms.1606

List of optional additional citations

  1. Neese, F.
     Approximate second-order SCF convergence for spin unrestricted wavefunctions
     Chem. Phys. Lett. 2000 325(1-3), 93-98
     doi.org/10.1016/s0009-2614(00)00662-x

Timings for individual modules:

Sum of individual times          ...      304.540 sec (=   5.076 min)
Startup calculation              ...        1.574 sec (=   0.026 min)   0.5 %
SCF iterations                   ...       14.723 sec (=   0.245 min)   4.8 %
Property calculations            ...        0.065 sec (=   0.001 min)   0.0 %
MP2 module                       ...       40.936 sec (=   0.682 min)  13.4 %
Geometry relaxation              ...        0.018 sec (=   0.000 min)   0.0 %
Numerical frequency calculation  ...      247.223 sec (=   4.120 min)  81.2 %
                             ****ORCA TERMINATED NORMALLY****
TOTAL RUN TIME: 0 days 0 hours 4 minutes 57 seconds 890 msec
