
                                 *****************
                                 * O   R   C   A *
                                 *****************

                                            #,                                       
                                            ###                                      
                                            ####                                     
                                            #####                                    
                                            ######                                   
                                           ########,                                 
                                     ,,################,,,,,                         
                               ,,#################################,,                 
                          ,,##########################################,,             
                       ,#########################################, ''#####,          
                    ,#############################################,,   '####,        
                  ,##################################################,,,,####,       
                ,###########''''           ''''###############################       
              ,#####''   ,,,,##########,,,,          '''####'''          '####       
            ,##' ,,,,###########################,,,                        '##       
           ' ,,###''''                  '''############,,,                           
         ,,##''                                '''############,,,,        ,,,,,,###''
      ,#''                                            '''#######################'''  
     '                                                          ''''####''''         
             ,#######,   #######,   ,#######,      ##                                
            ,#'     '#,  ##    ##  ,#'     '#,    #''#        ,####,    ,#,          
            ##       ##  ##   ,#'  ##            #'  '#       #'       ,# #          
            ##       ##  #######   ##           ,######,      #####,      #          
            '#,     ,#'  ##    ##  '#,     ,#' ,#      #,     #,   #      #          
             '#######'   ##     ##  '#######'  #'      '#     '####' #    #          



                #########################################################
                #                        -***-                          #
                #          Department of theory and spectroscopy        #
                #                                                       #
                #                      Frank Neese                      #
                #                                                       #
                #     Directorship, Architecture, Infrastructure        #
                #                    SHARK, DRIVERS                     #
                #        Core code/Algorithms in most modules           #
                #                                                       #
                #        Max Planck Institute fuer Kohlenforschung      #
                #                Kaiser Wilhelm Platz 1                 #
                #                 D-45470 Muelheim/Ruhr                 #
                #                      Germany                          #
                #                                                       #
                #                  All rights reserved                  #
                #                        -***-                          #
                #########################################################


                         Program Version 6.1.0  -  RELEASE   -
                                (GIT: $679e74b$)
                          ($2025-06-10 18:02:51 +0200$)


 With contributions from (in alphabetic order):
[Max-Planck-Institut fuer Kohlenforschung]                               
  Daniel Aravena         : Magnetic Suceptibility                        
  Michael Atanasov       : Ab Initio Ligand Field Theory (pilot matlab implementation)
  Alexander A. Auer      : GIAO ZORA, VPT2 properties, NMR spectrum      
  Ute Becker             : All parallelization in ORCA, NUMFREQ, NUMCALC 
  Giovanni Bistoni       : ED, misc. LED, open-shell LED, HFLD           
  Dmytro Bykov           : pre 5.0 version of the SCF Hessian            
  Marcos Casanova-Páez   : Triplet and SCS-CIS(D). UHF-(DLPNO)-IP/EA/STEOM-CCSD. UHF-CVS-IP/STEOM-CCSD   
  Vijay G. Chilkuri      : MRCI spin determinant printing, contributions to CSF-ICE 
  Pauline Colinet        : FMM embedding                                 
  Dipayan Datta          : RHF DLPNO-CCSD density                        
  Achintya Kumar Dutta   : EOM-CC, STEOM-CC                              
  Nicolas Foglia         : Exact transition moments, OPA infrastructure, MCD improvements    
  Dmitry Ganyushin       : Spin-Orbit,Spin-Spin,Magnetic field MRCI      
  Miquel Garcia-Rates    : C-PCM and meta-GGA Hessian, CCSD/C-PCM, Gaussian charge scheme 
  Tiago L. C. Gouveia    : GS-ROHF, GS-ROCIS                             
  Yang Guo               : DLPNO-NEVPT2, F12-NEVPT2, CIM, IAO-localization        
  Andreas Hansen         : Spin unrestricted coupled pair/coupled cluster methods 
  Ingolf Harden          : AUTO-CI MPn and infrastructure                
  Benjamin Helmich-Paris : MC-RPA, TRAH-(SCF,CASSCF), AVAS, COSX integrals, SCF dyn. polar., MC-PDFT, srDFT 
  Lee Huntington         : MR-EOM, pCC                                   
  Robert Izsak           : Overlap fitted RIJCOSX, COSX-SCS-MP3, EOM     
  Riya Kayal             : Wick's Theorem for AUTO-CI, AUTO-CI UHF-CCSDT 
  Emily Kempfer          : AUTO-CI RHF CISDT and CCSDT, approximate NEVPT4
  Christian Kollmar      : KDIIS, OOCD, Brueckner-CCSD(T), CCSD density, CASPT2, CASPT2-K, improved NEVPT2 
  Axel Koslowski         : Symmetry handling                             
  Simone Kossmann        : meta-GGA functionals, TD-DFT gradient, OOMP2, (MP2 Hessian; deprecated post 5.0) 
  Lucas Lang             : DCDCAS, Hyperfine gauge corrections, ICE-SOC+SSC
  Marvin Lechner         : AUTO-CI (C++ implementation), FIC-MRCC        
  Spencer Leger          : CASSCF response                               
  Dagmar Lenk            : GEPOL surface, SMD, ORCA-2-JSON               
  Dimitrios Liakos       : Extrapolation schemes; Compound Job, Property file
  Dimitrios Manganas     : Further ROCIS development; embedding schemes. LFT, Crystal Embedding 
  Dimitrios Pantazis     : SARC Basis sets                               
  Anastasios Papadopoulos: AUTO-CI, single reference methods and gradients 
  Taras Petrenko         : pre 6.0 DFT Hessian and TD-DFT gradient,  ECA, NRVS 
  Petra Pikulova         : Analytic Raman intensities                    
  Peter Pinski           : DLPNO-MP2, DLPNO-MP2 Gradient                 
  Shashank Vittal Rao    : ES-AILFT, MagRelax                            
  Christoph Reimann      : Effective Core Potentials                     
  Marius Retegan         : Local ZFS, SOC                                
  Christoph Riplinger    : Optimizer, TS searches, QM/MM, DLPNO-CCSD(T), (RO)-DLPNO pert. Triples 
  Michael Roemelt        : Original ROCIS implementation, recursive CI coupling coefficients
  Masaaki Saitow         : Open-shell DLPNO-CCSD energy and density      
  Barbara Sandhoefer     : DKH picture change effects                    
  Yorick L. A. Schmerwitz: GMF and freeze-and-release deltaSCF, NEB S-IDPP initial path                    
  Kantharuban Sivalingam : CASSCF convergence/infrastructure, NEVPT2, NEVPT3, NEVPT4(SD), FIC-MRCI and CEPA variants
  Bernardo de Souza      : ESD, SOC TD-DFT                               
  Georgi L. Stoychev     : AutoAux, RI-MP2 NMR, DLPNO-MP2 response, X2C  
  Van Anh Tran           : RI-MP2 g-tensors                              
  Willem Van den Heuvel  : Paramagnetic NMR                              
  Zikuan Wang            : NOTCH, Electric field optimization            
  Frank Wennmohs         : Technical directorship and infrastructure     
  Hang Xu                : AUTO-CI-Response properties                   
                                                                         
[FACCTs GmbH]                                                            
  Markus Bursch, Nicolas Foglia, Miquel Garcia-Rates, Ingolf Harden, Hagen Neugebauer, Anastasios Papadopoulos, 
  Christoph Riplinger, Bernardo de Souza, Georgi L. Stoychev                                                    
                                                                 
  APM, various basis sets, CI-OPT, improved COSX, DLPNO-Multilevel,           
  DOCKER, DRACO, updates on ESD, Fragmentator, GOAT, IRC, LR-CPCM, L-BFGS, MBIS, meta-GGA TD-DFT gradient, ML-optimized integration grids, 
  MM, NACMEs, nearIR, NEB, NEB-TS, NL-DFT gradient (VV10), 2- and 3-layer-ONIOM, interface openCOSMO-RS, QMMM,   
  Crystal-QMMM, RESP, rigid body optimization, SF, symmetry and pop. for TD-DFT, various functionals, SOLVATOR                                   
                                                                         
[Other institutions]                                                     
  V. Asgeirsson          : NEB                                           
  Christoph Bannwarth    : sTDA-DFT, sTD-DFT, PBEh-3c, B97-3c, D3        
  Giovanni Bistoni       : ETS/NOCV, ADLD/ADEX, COVALED                  
  Martin Brehm           : Molecular dynamics                            
  Ronald Cardenas        : ETS/NOCV                                      
  Martina Colucci        : COVALED                                       
  Sebastian Ehlert       : rSCAN, r2SCAN, r2SCAN-3c, D4, dhf basis sets  
  Marvin Friede          : D4 for Fr, Ra, Ac-Lr                          
  Lars Goerigk           : TD-DFT with DH, B97 family of functionals     
  Stefan Grimme          : VdW corrections, initial TS optimization, DFT functionals, gCP, sTDA/sTD-DF 
  Waldemar Hujo          : DFT-NL                                        
  H. Jonsson             : NEB                                           
  Holger Kruse           : gCP                                           
  Marcel Mueller         : wB97X-3c, vDZP basis set                      
  Hagen Neugebauer       : wr2SCAN, Native XTB                           
  Gianluca Regni         : ADLD/ADEX                                     
  Tobias Risthaus        : pre 6.0 range-separated hybrid DFT and stability analysis
  Lukas Wittmann         : regularized MP2, r2SCAN double-hybrids, wr2SCAN        
                                                                         
We gratefully acknowledge several colleagues who have allowed us to      
interface, adapt or use parts of their codes:                            
  Ed Valeev, F. Pavosevic, A. Kumar             : LibInt (2-el integral package), F12 methods 
  Garnet Chan, S. Sharma, J. Yang, R. Olivares  : DMRG                   
  Ulf Ekstrom                                   : XCFun DFT Library      
  Mihaly Kallay                                 : mrcc  (arbitrary order and MRCC methods)
  Frank Weinhold                                : gennbo (NPA and NBO analysis)           
  Simon Mueller                                 : openCOSMO-RS                            
  Christopher J. Cramer and Donald G. Truhlar   : smd solvation model                     
  S Lehtola, MJT Oliveira, MAL Marques          : LibXC Library                           
  Liviu Ungur et al                             : ANISO software                          


 Your calculation uses the libint2 library for the computation of 2-el integrals
 For citations please refer to: http://libint.valeyev.net

 Your ORCA version has been built with support for libXC version: 7.0.0
 For citations please refer to: https://libxc.gitlab.io

 This ORCA versions uses:
   CBLAS   interface :  Fast vector & matrix operations
   LAPACKE interface :  Fast linear algebra routines
   SCALAPACK package :  Parallel linear algebra routines
   Shared memory     :  Shared parallel matrices
   BLAS/LAPACK       :  OpenBLAS 0.3.29  USE64BITINT DYNAMIC_ARCH NO_AFFINITY Haswell SINGLE_THREADED
        Core in use  :  Haswell
   Copyright (c) 2011-2014, The OpenBLAS Project


  ***********************************
  * Starting time: Tue Sep 30 10:06:18 2025
  * Host name:     sv1-c724
  * Process ID:    1466468
  * Working dir.:  /home/lme/practical_course/practical_course_bachelor/h2o/vpt2_mp2_6_311_g_d_p
  ***********************************

================================================================================

----- Orbital basis set information -----
Your calculation utilizes the basis: 6-311G(d,p)
   H, Li - Ne  : R. Krishnan, J. S. Binkley, R. Seeger and J. A. Pople, J. Chem. Phys. 72, 650 (1980).
   Na - Ar     : A. D. McLean and G. S. Chandler J. Chem. Phys. 72, 5639, (1980).
   K  - Ca     : J.-P. Blaudeau, M. P. McGrath, L. A. Curtiss and L. Radom, J. Chem. Phys. 107, 5016 (1997).
   Ga - Kr     : L. A. Curtiss, M. P. McGrath, J.-P. Blandeau, N. E. Davis, R. C. Binning and L. Radom, J. Chem. Phys. 103, 6104 (1995).
   Pol./Diff.
   H, Li - Cl  : T. Clark, J. Chandrasekhar and P. v. R. Schleyer, J. Comp. Chem. 4, 294 (1983).
   H - Ne      : M. J. Frisch, J. A. Pople and J. S. Binkley, J. Chem. Phys. 80, 3265 (1984).

================================================================================
                                        WARNINGS
                       Please study these warnings very carefully!
================================================================================


WARNING: Instead of the default, updated atomic masses from 2016 are used.


WARNING: TCut can not be >=Thresh
  ===> : TCut is set to 0.01*Thresh

================================================================================
                                       INPUT FILE
================================================================================
NAME = h2o.inp
|  1> ! RHF 6-311G(d,p) ExtremeSCF  VPT2
|  2> 
|  3> %pal nprocs 4 end
|  4> 
|  5> %vpt2
|  6> 	VPT2			On
|  7> 	HessianCutoff 1e-12
|  8> 	PrintLevel 1
|  9> end
| 10> 
| 11> %method
| 12>   Z_Tol 1e-14
| 13> end
| 14> 
| 15> * xyz 0 1
| 16>   O           0.10579950836185      0.00000000000000      0.00000000000000
| 17>   H           0.70570224581907      0.00000000000000      0.74668419232728
| 18>   H           0.70570224581908      0.00000000000000     -0.74668419232728
| 19> *
| 20> 
| 21>                          ****END OF INPUT****
================================================================================

numfreqdx 1 AnHess 0 RunTyp 1069533952 
                     *******************************
                     *              VPT2           *
                     *******************************

    Basename = h2o
    Pickettname = 
    MinimiseOrcaOutput = true
    SymThresh = 1.00e-04
    AnharmDisp = 0.050
    PropDisp = 0.050
    HessianCutoff = 1.00e-12
    print_level = 1
    AvgProp = 0
    SkipModes = 0
    CubicXTB = 0


Rotating Geometry into its principle axis frame!
 -----------------------------------------------
| PLEASE NOTE :                                 |
| In contrast to most parts of ORCA, which keep |
| the orientation of a system from the input,   |
| the VPT2 module will rotate the system into   |
| the principlal axes frame. This influences    |
| all directional properties like dipole        |
| or transition dipole components. Please check |
| the geometry output below for the new coords !|
 -----------------------------------------------

 > Obtaining the initial Hessian.
calling ORCA analytical Hessian for initial Hessian 
VPT2 initial Hessian finished in     0.880299 seconds 
VPT2 initial property finished in     0.000000 seconds 
-----------------------------------------------------------------
                         IR Intensities                      
-----------------------------------------------------------------
Mode freq     Int          T2   (      Tx       Ty       Tz     )  
     cm-1    km/mol        a.u.                                 
----------------------------------------------------------------
0   -0.00   -nan       -nan (      -nan       -nan       -nan)
1   -0.00   -nan       -nan (      -nan       -nan       -nan)
2    0.00  0.000   0.000000 ( -0.000000   0.000000   0.000000)
3  450.84  0.000   0.000000 ( -0.000000  -0.000000   0.000000)
4  512.28 114.623   0.013817 ( -0.117545   0.000000   0.000000)
5  605.59 316.531   0.032276 (  0.000000  -0.000000   0.179656)
6  1821.36 70.197   0.002380 ( -0.000000   0.048784  -0.000000)
7  3922.03 16.591   0.000261 (  0.000000   0.016162   0.000000)
8  3990.14 44.076   0.000682 (  0.026117  -0.000000  -0.000000)
 > Generate 6 displacements .
generating displaced geometries for force field 
generating displaced geometries for property derivatives 
Storing displaced geometries for hessian and property derivatives
List of participating nodes    ...  h2o.hostnames

	<< Calculating Hessian on displaced geometry   2 (of   6)   >>
	<< Calculating Hessian on displaced geometry   1 (of   6)   >>
	<< Calculating Hessian on displaced geometry   3 (of   6)   >>
	<< Calculating Hessian on displaced geometry   4 (of   6)   >>
	<< Calculating Hessian on displaced geometry   5 (of   6)   >>
	<< Calculating Hessian on displaced geometry   6 (of   6)   >>
VPT2 displaced Hessians finished in     3.748922 seconds 
 
------- collect hessians vpt2 -------- 
-----------------------------------------------------------------
                         IR Intensities                      
-----------------------------------------------------------------
Mode freq     Int          T2   (      Tx       Ty       Tz     )  
     cm-1    km/mol        a.u.                                 
----------------------------------------------------------------
0   -0.00   -nan       -nan (      -nan       -nan       -nan)
1    0.00  0.000   0.000000 ( -0.000000   0.000000  -0.000000)
2    0.01  0.000   0.000000 (  0.000000  -0.000000   0.000000)
3  437.39  0.000   0.000000 ( -0.000000   0.000000  -0.000000)
4  512.77 115.400   0.013897 ( -0.117886  -0.000000  -0.000000)
5  621.94 314.761   0.031252 ( -0.000000  -0.000000   0.176782)
6  1827.28 68.852   0.002327 (  0.000000   0.048237   0.000000)
7  3920.39 16.614   0.000262 ( -0.000000   0.016177   0.000000)
8  3983.43 42.276   0.000655 ( -0.025600  -0.000000  -0.000000)
-----------------------------------------------------------------
                         IR Intensities                      
-----------------------------------------------------------------
Mode freq     Int          T2   (      Tx       Ty       Tz     )  
     cm-1    km/mol        a.u.                                 
----------------------------------------------------------------
0   -0.00   -nan       -nan (      -nan       -nan       -nan)
1    0.00  0.000   0.000000 (  0.000000   0.000000   0.000000)
2    0.01  0.000   0.000000 ( -0.000000  -0.000000   0.000000)
3  463.90  0.000   0.000000 ( -0.000000  -0.000000  -0.000000)
4  512.08 113.838   0.013728 (  0.117165  -0.000000  -0.000000)
5  588.83 318.310   0.033381 (  0.000000  -0.000000   0.182706)
6  1815.33 71.600   0.002436 ( -0.000000   0.049351  -0.000000)
7  3923.35 16.559   0.000261 ( -0.000000   0.016144   0.000000)
8  3996.48 45.931   0.000710 ( -0.026640   0.000000   0.000000)
-----------------------------------------------------------------
                         IR Intensities                      
-----------------------------------------------------------------
Mode freq     Int          T2   (      Tx       Ty       Tz     )  
     cm-1    km/mol        a.u.                                 
----------------------------------------------------------------
0   -0.00   -nan       -nan (      -nan       -nan       -nan)
1    0.00  0.000   0.000000 (  0.000000   0.000000  -0.000000)
2    0.01  0.000   0.000000 ( -0.000000   0.000000   0.000000)
3  505.64  0.000   0.000000 ( -0.000000  -0.000000   0.000000)
4  560.66 114.118   0.012569 (  0.112111  -0.000000  -0.000000)
5  646.36 315.185   0.030112 ( -0.000000  -0.000000   0.173527)
6  1827.61 70.010   0.002365 ( -0.000000   0.048636  -0.000000)
7  3876.94 16.282   0.000259 (  0.000000   0.016104   0.000000)
8  3944.69 43.454   0.000680 ( -0.026081   0.000000   0.000000)
-----------------------------------------------------------------
                         IR Intensities                      
-----------------------------------------------------------------
Mode freq     Int          T2   (      Tx       Ty       Tz     )  
     cm-1    km/mol        a.u.                                 
----------------------------------------------------------------
0    0.00  0.000   0.000000 ( -0.000000   0.000000  -0.000000)
1    0.00  0.000   0.000000 (  0.000000   0.000000   0.000000)
2    0.01  0.000   0.000000 (  0.000000  -0.000000   0.000000)
3  386.31  0.000   0.000000 ( -0.000000   0.000000  -0.000000)
4  457.07 115.129   0.015554 ( -0.124716   0.000000  -0.000000)
5  560.42 317.883   0.035026 ( -0.000000  -0.000000   0.187153)
6  1814.75 70.388   0.002395 ( -0.000000   0.048940  -0.000000)
7  3967.52 16.898   0.000263 ( -0.000000   0.016217   0.000000)
8  4036.01 44.695   0.000684 ( -0.026150  -0.000000   0.000000)
-----------------------------------------------------------------
                         IR Intensities                      
-----------------------------------------------------------------
Mode freq     Int          T2   (      Tx       Ty       Tz     )  
     cm-1    km/mol        a.u.                                 
----------------------------------------------------------------
0   -0.00   -nan       -nan (      -nan       -nan       -nan)
1   -0.00   -nan       -nan (      -nan       -nan       -nan)
2    0.00  0.000   0.000000 ( -0.000000   0.000000   0.000000)
3  431.58 26.548   0.003799 ( -0.000000  -0.000000   0.061632)
4  510.92 114.597   0.013850 (  0.117680   0.001369   0.000000)
5  618.12 289.988   0.028970 ( -0.000000   0.000000   0.170206)
6  1821.30 70.220   0.002381 ( -0.001146   0.048780  -0.000000)
7  3899.34 21.785   0.000345 ( -0.011680  -0.014442  -0.000000)
8  4013.28 38.882   0.000598 ( -0.023360   0.007250   0.000000)
-----------------------------------------------------------------
                         IR Intensities                      
-----------------------------------------------------------------
Mode freq     Int          T2   (      Tx       Ty       Tz     )  
     cm-1    km/mol        a.u.                                 
----------------------------------------------------------------
0   -0.00   -nan       -nan (      -nan       -nan       -nan)
1   -0.00   -nan       -nan (      -nan       -nan       -nan)
2    0.00  0.000   0.000000 (  0.000000   0.000000  -0.000000)
3  431.58 26.548   0.003799 (  0.000000   0.000000  -0.061632)
4  510.92 114.597   0.013850 ( -0.117680   0.001369  -0.000000)
5  618.12 289.988   0.028970 ( -0.000000  -0.000000   0.170206)
6  1821.30 70.220   0.002381 (  0.001146   0.048780   0.000000)
7  3899.34 21.785   0.000345 ( -0.011680   0.014442   0.000000)
8  4013.28 38.882   0.000598 ( -0.023360  -0.007250  -0.000000)
----- collect hessians vpt2 done ! ---

processing dipole derivatives 

 Computing mean and mean square displacements of normal modes 

 mode      frequency         <q>          <q^2>
------------------------------------------------
  0     1821.3625102     0.0028693     0.0330520
  1     3922.0270377     0.0377616     0.0153491
  2     3990.1367518    -0.0000000     0.0150871
------------------------------------------------

Write the harmonic data into the VPT2 file.
Calling the VPT2 program via:
    /usr/local/orca_6_1_0/orca_vpt2 h2o.vpt2 
orca_vpt vpt2_filename: h2o.vpt2


  *******************************
                         .@      
                      .@@@       
                   @@@@@@*       
                @@@@@@@@         
               @@@@@@@@          
             @@@@@@@@@           
            @@@@@@@@@@           
           @@@@@@@@@@@           
         @@@@@@@@@@@@@@          
   @@@@@@@@@@@@@@@@@@@@@         
   @@@@@@@@@@@@@@@@@    @@@@@@@  
         ORCA VPT2/GVPT2 Analysis
  *******************************

VPT2 Settings:
    Basename:                                h2o
    Pickettname:                                
    Minimise the Orca amount of output:      true
    Rotational symmetry detection threshold: 1.00e-04
    Anharmonic displacement factor:          0.050
    Property deriv. displ. factor:           0.050
    Cutoff value when reading the Hessian:   1.00e-12
    Print-level:                             1  
    Averaged prop. (0=none,1=NMR,2=Atensor,3=Jcouplings, 4=Gtensor): 0  

geometry reading: h2o.vpt2
geometry read: h2o.vpt2
-----------------------------------------------------------------
                         IR Intensities                      
-----------------------------------------------------------------
Mode freq     Int          T2   (      Tx       Ty       Tz     )  
     cm-1    km/mol        a.u.                                 
----------------------------------------------------------------
0   -0.00   -nan       -nan (      -nan       -nan       -nan)
1   -0.00   -nan       -nan (      -nan       -nan       -nan)
2    0.00  0.000   0.000000 ( -0.000000  -0.000000  -0.000000)
3  450.84  0.000   0.000000 ( -0.000000   0.000000   0.000000)
4  512.28 114.623   0.013817 ( -0.117545  -0.000000   0.000000)
5  605.59 316.531   0.032276 (  0.000000   0.000000   0.179656)
6  1821.36 70.197   0.002380 ( -0.000000   0.048784  -0.000000)
7  3922.03 16.591   0.000261 (  0.000000   0.016162   0.000000)
8  3990.14 44.076   0.000682 ( -0.026117   0.000000   0.000000)

 Analysis of possible Fermi resonances with VPT2 denominators 
 below 10 wavenumbers (denominator values in wavenumbers): 

 
                                                  ... done 

evaluating centrifugal distortion constants...................  
centrifugal distortion constants -- 
  i  j  k  l    Tau [cm-1]  
  0  0  0  0  -6.219560e-02 
  0  0  0  1  -0.000000e+00 
  0  0  0  2  -0.000000e+00 
  0  0  1  0  -0.000000e+00 
  0  0  1  1  1.409899e-02 
  0  0  1  2  -0.000000e+00 
  0  0  2  0  -0.000000e+00 
  0  0  2  1  -0.000000e+00 
  0  0  2  2  -2.561219e-03 
  0  1  0  0  -0.000000e+00 
  0  1  0  1  -3.789784e-03 
  0  1  0  2  -0.000000e+00 
  0  1  1  0  -3.750366e-03 
  0  1  1  1  -0.000000e+00 
  0  1  1  2  -0.000000e+00 
  0  1  2  0  -0.000000e+00 
  0  1  2  1  -0.000000e+00 
  0  1  2  2  -0.000000e+00 
  0  2  0  0  -0.000000e+00 
  0  2  0  1  -0.000000e+00 
  0  2  0  2  -0.000000e+00 
  0  2  1  0  -0.000000e+00 
  0  2  1  1  -0.000000e+00 
  0  2  1  2  -0.000000e+00 
  0  2  2  0  -0.000000e+00 
  0  2  2  1  -0.000000e+00 
  0  2  2  2  -0.000000e+00 
  1  0  0  0  -0.000000e+00 
  1  0  0  1  -3.750366e-03 
  1  0  0  2  -0.000000e+00 
  1  0  1  0  -3.711358e-03 
  1  0  1  1  -0.000000e+00 
  1  0  1  2  -0.000000e+00 
  1  0  2  0  -0.000000e+00 
  1  0  2  1  -0.000000e+00 
  1  0  2  2  -0.000000e+00 
  1  1  0  0  1.409899e-02 
  1  1  0  1  -0.000000e+00 
  1  1  0  2  -0.000000e+00 
  1  1  1  0  -0.000000e+00 
  1  1  1  1  -8.074544e-03 
  1  1  1  2  -0.000000e+00 
  1  1  2  0  -0.000000e+00 
  1  1  2  1  -0.000000e+00 
  1  1  2  2  -1.390417e-03 
  1  2  0  0  -0.000000e+00 
  1  2  0  1  -0.000000e+00 
  1  2  0  2  -0.000000e+00 
  1  2  1  0  -0.000000e+00 
  1  2  1  1  -0.000000e+00 
  1  2  1  2  -0.000000e+00 
  1  2  2  0  -0.000000e+00 
  1  2  2  1  -0.000000e+00 
  1  2  2  2  -0.000000e+00 
  2  0  0  0  -0.000000e+00 
  2  0  0  1  -0.000000e+00 
  2  0  0  2  -0.000000e+00 
  2  0  1  0  -0.000000e+00 
  2  0  1  1  -0.000000e+00 
  2  0  1  2  -0.000000e+00 
  2  0  2  0  -0.000000e+00 
  2  0  2  1  -0.000000e+00 
  2  0  2  2  -0.000000e+00 
  2  1  0  0  -0.000000e+00 
  2  1  0  1  -0.000000e+00 
  2  1  0  2  -0.000000e+00 
  2  1  1  0  -0.000000e+00 
  2  1  1  1  -0.000000e+00 
  2  1  1  2  -0.000000e+00 
  2  1  2  0  -0.000000e+00 
  2  1  2  1  -0.000000e+00 
  2  1  2  2  -0.000000e+00 
  2  2  0  0  -2.561219e-03 
  2  2  0  1  -0.000000e+00 
  2  2  0  2  -0.000000e+00 
  2  2  1  0  -0.000000e+00 
  2  2  1  1  -1.390417e-03 
  2  2  1  2  -0.000000e+00 
  2  2  2  0  -0.000000e+00 
  2  2  2  1  -0.000000e+00 
  2  2  2  2  -9.018058e-04 
----------------------------------- 
 quartic centrifugal distortion parameters for Watson's symmetrically 
 and asymmetrically reduced Hamiltonian in cm-1 : 
 --------------------------------------------------------
 R5    7.916879e-04  
 R6    -9.680492e-05  
 sigma 5.084756e+00  

         s-reduced       
 --------------------------------------------------------
 DJ    1.084132e-03  
 DK    1.824537e-02  
 DJK   -3.780607e-03  
 D1    -4.482961e-04  
 D2    -1.895577e-05  

         a-reduced       
 --------------------------------------------------------
 DJ    9.284339e-04 
 DK    1.746688e-02 
 DJK   -2.846417e-03 
 DelJ  1.122044e-03 
 DelK  1.843493e-02 
 DelJK -4.008076e-03 
 delJ  4.482961e-04 
 delK  3.855418e-04 

                                           ................... done.

Generating anharmonicity constants accoding to Amos et al. 
J. Chem. Phys. 8323 (1991) (doi:10.1063/1.461259) eq. 5 & 6 
Definition of Fermi resonances as described by Franke et al.  
J. Phys. Chem. A 1301 (2021)  (doi:10.1021/acs.jpca.0c09526) 
eq. 37 and 38 (see also Papousek/Alijev, 1982, 160 pp.) 
 
                                              ................ done. 

evaluating zero point vibrational energies ...................  
                                           ................... done. 


 combination band and overtone Analysis according 
 to Barone et al. PCCP 16, 1759 (2014) 
 using the VPT2 anharmonicity constants (see above). 
 unphysical contributions to the intensities due           
 to resonances in the anharmonic terms are circumvented by 
 eliminating contributions for which the denominator 
 |wi + wj - wk| is larger than 2 cm-1 
 
                                              ................ done.



============================ Geometry ==========================


Coordinates in Angstroem
--------------------------------------------------------------
Atom         x               y               z        Mass [u]
--------------------------------------------------------------
O       0.000000000     0.067138039    -0.000000000  15.994915
H       0.746684196    -0.532764701     0.000000000   1.007825
H      -0.746684196    -0.532764701     0.000000000   1.007825
--------------------------------------------------------------


===================== Rotational Analysis ======================


Moment of inertia tensor [u * Angstrom^2]
-----------------------------------------
Axis      x            y            z
-----------------------------------------
 x    0.6442159    0.0000000    0.0000000
 y    0.0000000    1.1238001    0.0000000
 z    0.0000000    0.0000000    1.7680160
-----------------------------------------

Vibrational-rotational constants [1/cm]
---------------------------------------------------
 a    i      T1         T2+3       T4        Total
---------------------------------------------------
 x    0   -1.44952    0.00000   -0.58526   -2.03478
 x    1   -0.37439    0.00000    0.95047    0.57607
 x    2   -0.37021   -0.00000    1.35143    0.98122
 y    0   -0.26493    0.00000    0.08211   -0.18282
 y    1   -0.22121    0.00000    0.44839    0.22718
 y    2   -0.21670   -0.00000    0.32479    0.10808
 z    0   -0.00002    0.20493   -0.04453    0.16038
 z    1   -0.13907    0.00003    0.30735    0.16830
 z    2   -0.00000   -0.18471    0.31065    0.12594
---------------------------------------------------

Rotational constants B_e and B_0 [1/cm]
----------------------------------------------
Const          x            y            z
----------------------------------------------
B_e         26.16767     15.00056      9.53477
B_0         26.40642     14.92434      9.30746
B_e-B_0     -0.23875      0.07622      0.22731
----------------------------------------------


===================== Vibrational Analysis =====================


Anharmonic constants [1/cm]
---------------------------
  r      s        chi[r][s] 
---------------------------
  0      0        -15.29924 
  1      0         -8.20737 
  1      1        -40.73760 
  2      0        -21.57456 
  2      1       -160.26486 
  2      2        -45.24153 
---------------------------

Fundamental transitions [1/cm] 
-----------------------------------------
Mode     w(harm)      v(fund)      Diff
-----------------------------------------
  0     1821.363     1775.873     -45.489
  1     3922.027     3756.316    -165.711
  2     3990.137     3808.734    -181.403
-----------------------------------------

Zero-point ro-vibrational energy [1/cm]
---------------------------------------
Harmonic contribution:         4866.763
Anharmonic correction:          -72.831
Ro-vibrational correction:        4.718
---------------------------------------
Total:                         4798.650


Overtones and combination bands 
--------------------------------------------------------------------------------
  modes   freq      eps        Int     T**2     (  Tx          Ty          Tz )
         [cm-1] [L/(mol*cm)] [km/mol] [a.u.]     
--------------------------------------------------------------------------------
  0   0  3521.15  0.000104    0.52   0.000009   (-0.000000 -0.003031  0.000000)
  0   1  5523.98  0.000010    0.05   0.000001   (-0.000000 -0.000755 -0.000000)
  0   2  5563.03  0.000706    3.57   0.000040   ( 0.006291 -0.000000 -0.000000)
  1   1  7431.16  0.000157    0.80   0.000007   ( 0.000000 -0.002571 -0.000000)
  1   2  7404.78  0.000732    3.70   0.000031   ( 0.005552 -0.000000 -0.000000)
  2   2  7526.98  0.000042    0.21   0.000002   (-0.000000 -0.001324 -0.000000)


============================== End =============================


--------------------------------
SUGGESTED CITATIONS FOR THIS RUN
--------------------------------

Below you find a list of papers that are relevant to this ORCA run
We neither can nor want to force you to cite these papers, but we appreciate if you do
You receive ORCA, which is the product of decades of hard work by many enthusiastic individuals, for free
The only thing we kindly ask in return is that you cite our papers,
We deeply appreciate it, if you show your appreciation for ORCA by not just citing the generic ORCA reference.

Please note that relegating all ORCA citations to the supporting information does *not* help us.
SI sections are not indexed - citations you put there will not count into any citation statistics
But we need these citations in order to attract the funding resources that allow us to do what we are doing

Therefore, if you are a happy ORCA user, please consider citing a few of the papers listed below in the main body of your paper

In addition to the list printed below, the program has created the file h2o.bibtex that contains the list in bibtex format
You can import this file easily into all common literature databanks and citation aid programs


List of essential papers. We consider these as the minimum necessary citations

  1. Neese, F.
     Software update: the ORCA program system, version 6.0
     WIRES Comput. Molec. Sci. 2025 15(1), e70019
     doi.org/10.1002/wcms.7019

List of papers to cite with high priority. The work reported in these papers was absolutely
necessary for this run to complete.
Our perspective: the developers of density functionals and basis sets usually get cited in chemistry papers
Good! But without the algorithms to do something with them, the functionals or basis sets would not do anything.
Hence, in our opinion, the algorithm design and method developments papers are equally worthy of getting cited

  1. Neese, F.
     The SHARK Integral Generation and Digestion System
     J. Comp. Chem. 2022 44(3), 381
     doi.org/10.1002/jcc.26942

List of suggested additional citations. These are papers that are important in the 'surrounding' of 
of this run, or papers that preceded the highly important papers. If you like your results we are grateful for a citation.

  1. Mills, I.M.
     Molecular Spectroscopy: Modern Research
     In:Rao, K.N.; Matthews, C.W. (Eds)
     Academic, New York 1972 115-140
  2. Neese, F.
     The ORCA program system
     WIRES Comput. Molec. Sci. 2012 2(1), 73-78
     doi.org/10.1002/wcms.81
  3. Barone, V.; Biczysko, M.; Bloino, J.
     Fully anharmonic IR and Raman spectra of medium-size molecular 
      systems: accuracy and interpretation
     Phys. Chem. Chem. Phys. 2014 16 , 1759-1787
     doi.org/10.1039/C3CP53413H
  4. Neese, F.
     Software update: the ORCA program system, version 4.0
     WIRES Comput. Molec. Sci. 2018 8(1), 1-6
     doi.org/10.1002/wcms.1327
  5. Neese, F.; Wennmohs, F.; Becker, U.; Riplinger, C.
     The ORCA quantum chemistry program package
     J. Chem. Phys. 2020 152(22), 224108
     doi.org/10.1063/5.0004608
  6. Franke, P.R.; Stanton, J.F.; Douberly, G.E.
     How to VPT2: Accurate and Intuitive Simulations of CH Stretching 
     Infrared Spectra Using VPT2+K with Large Effective Hamiltonian 
     Resonance Treatments
     J. Phys. Chem. A 2021 125(6), 1301-1324
     doi.org/10.1021/acs.jpca.0c09526
  7. Neese, F.
     Software update: The ORCA program system—Version 5.0
     WIRES Comput. Molec. Sci. 2022 12(1), e1606
     doi.org/10.1002/wcms.1606

List of optional additional citations

  1. Waston, J.K.
     Determination of Centrifugal Distortion Coefficients of Asymmetric-Top Molecules
     J. Chem. Phys. 1967 46 , 1035
     doi.org/10.1063/1.1840957
  2. Amos, R.D.; Handy, N.C.; Green, W.H.; Jayatilaka, D.; Willetts, A.; Palmieri, P.
     Anharmonic vibrational properties of CH2F2 : 
     A comparison of theory and experiment
     J. Chem. Phys. 1991 95 , 8323-8336
     doi.org/10.1063/1.461259
  3. Neese, F.
     Approximate second-order SCF convergence for spin unrestricted wavefunctions
     Chem. Phys. Lett. 2000 325(1-3), 93-98
     doi.org/10.1016/s0009-2614(00)00662-x

Timings for individual modules:

Sum of individual times          ...        0.920 sec (=   0.015 min)
Startup calculation              ...        0.242 sec (=   0.004 min)  26.3 %
SCF iterations                   ...        0.509 sec (=   0.008 min)  55.3 %
Property calculations            ...        0.169 sec (=   0.003 min)  18.4 %
                             ****ORCA TERMINATED NORMALLY****
TOTAL RUN TIME: 0 days 0 hours 0 minutes 5 seconds 917 msec
